<UPF version="2.0.1">
<PP_INFO>
Generated by new atomic code, or converted to UPF format
Author:
Generation date:
Pseudopotential type: US
Element: N
Functional:  SLA  PW   PBE  PBE
Suggested minimum cutoff for wavefunctions:   0. Ry
Suggested minimum cutoff for charge density:   0. Ry
The Pseudo was generated with a Non-Relativistic Calculation
L component and cutoff radius for Local Potential:  0   0.0000
Valence configuration:
nl pn  l   occ       Rcut    Rcut US       E pseu
2S  0  0  2.00      1.300      1.500     0.000000
2P  0  1  3.00      1.300      1.500     0.000000
Generation configuration: not available.
</PP_INFO>
<!--
END OF HUMAN READABLE SECTION
-->
<PP_HEADER generated="Generated by new atomic code, or converted to UPF format" author="" date="" comment="" element="N " pseudo_type="US" relativistic="no" is_ultrasoft="true" is_paw="false" is_coulomb="false" has_so="false" has_wfc="false" has_gipaw="false" paw_as_gipaw="false" core_correction="false" functional=" SLA  PW   PBE  PBE" z_valence="5.000000000000e0" total_psenergy="-1.924364012300e1" wfc_cutoff="0.000000000000e0" rho_cutoff="0.000000000000e0" l_max="2" l_max_rho="0" l_local="0" mesh_size="1257" number_of_wfc="2" number_of_proj="4"/>
<PP_MESH dx="1.000000000000e-2" mesh="1257" xmin="-6.000000000001e0" rmax="1.008959563710e2" zmesh="7.000000000000e0">
<PP_R>
3.541074538090001e-4 3.576662928860000e-4 3.612608988900000e-4 3.648916312850000e-4
3.685588531470000e-4 3.722629312010000e-4 3.760042358590000e-4 3.797831412540000e-4
3.836000252790000e-4 3.874552696270000e-4 3.913492598240000e-4 3.952823852740000e-4
3.992550392910000e-4 4.032676191449999e-4 4.073205260970000e-4 4.114141654410000e-4
4.155489465450000e-4 4.197252828890000e-4 4.239435921119999e-4 4.282042960470001e-4
4.325078207680001e-4 4.368545966320000e-4 4.412450583200000e-4 4.456796448810001e-4
4.501587997780000e-4 4.546829709300000e-4 4.592526107580000e-4 4.638681762300000e-4
4.685301289060001e-4 4.732389349859999e-4 4.779950653529999e-4 4.827989956250000e-4
4.876512061990001e-4 4.925521823000000e-4 4.975024140300000e-4 5.025023964160001e-4
5.075526294599999e-4 5.126536181900000e-4 5.178058727090001e-4 5.230099082469999e-4
5.282662452120000e-4 5.335754092410001e-4 5.389379312560000e-4 5.443543475129999e-4
5.498251996590000e-4 5.553510347820000e-4 5.609324054720000e-4 5.665698698700000e-4
5.722639917270000e-4 5.780153404599999e-4 5.838244912090000e-4 5.896920248940001e-4
5.956185282720000e-4 6.016045939999999e-4 6.076508206880000e-4 6.137578129650000e-4
6.199261815340000e-4 6.261565432380001e-4 6.324495211190001e-4 6.388057444779999e-4
6.452258489450000e-4 6.517104765339999e-4 6.582602757130001e-4 6.648759014690000e-4
6.715580153689999e-4 6.783072856300000e-4 6.851243871850000e-4 6.920100017499999e-4
6.989648178910000e-4 7.059895310969999e-4 7.130848438440001e-4 7.202514656700000e-4
7.274901132429999e-4 7.348015104329999e-4 7.421863883860001e-4 7.496454855970001e-4
7.571795479810000e-4 7.647893289510001e-4 7.724755894920000e-4 7.802390982340000e-4
7.880806315369999e-4 7.960009735600000e-4 8.040009163430000e-4 8.120812598890000e-4
8.202428122360001e-4 8.284863895490000e-4 8.368128161910001e-4 8.452229248120000e-4
8.537175564290001e-4 8.622975605139999e-4 8.709637950739999e-4 8.797171267380000e-4
8.885584308490001e-4 8.974885915430001e-4 9.065085018440000e-4 9.156190637510001e-4
9.248211883269999e-4 9.341157957930001e-4 9.435038156160001e-4 9.529861866080001e-4
9.625638570120000e-4 9.722377846039999e-4 9.820089367849999e-4 9.918782906779999e-4
1.001846833230000e-3 1.011915561290000e-3 1.022085481760000e-3 1.032357611630000e-3
1.042732978110000e-3 1.053212618770000e-3 1.063797581560000e-3 1.074488925000000e-3
1.085287718230000e-3 1.096195041130000e-3 1.107211984450000e-3 1.118339649890000e-3
1.129579150230000e-3 1.140931609420000e-3 1.152398162730000e-3 1.163979956810000e-3
1.175678149860000e-3 1.187493911700000e-3 1.199428423930000e-3 1.211482879990000e-3
1.223658485360000e-3 1.235956457590000e-3 1.248378026500000e-3 1.260924434250000e-3
1.273596935490000e-3 1.286396797490000e-3 1.299325300240000e-3 1.312383736610000e-3
1.325573412440000e-3 1.338895646720000e-3 1.352351771670000e-3 1.365943132930000e-3
1.379671089650000e-3 1.393537014620000e-3 1.407542294460000e-3 1.421688329690000e-3
1.435976534950000e-3 1.450408339050000e-3 1.464985185200000e-3 1.479708531090000e-3
1.494579849060000e-3 1.509600626260000e-3 1.524772364790000e-3 1.540096581820000e-3
1.555574809790000e-3 1.571208596540000e-3 1.586999505460000e-3 1.602949115660000e-3
1.619059022100000e-3 1.635330835790000e-3 1.651766183920000e-3 1.668366710060000e-3
1.685134074250000e-3 1.702069953260000e-3 1.719176040670000e-3 1.736454047130000e-3
1.753905700440000e-3 1.771532745780000e-3 1.789336945870000e-3 1.807320081140000e-3
1.825483949930000e-3 1.843830368640000e-3 1.862361171920000e-3 1.881078212870000e-3
1.899983363210000e-3 1.919078513460000e-3 1.938365573170000e-3 1.957846471050000e-3
1.977523155210000e-3 1.997397593330000e-3 2.017471772880000e-3 2.037747701290000e-3
2.058227406160000e-3 2.078912935490000e-3 2.099806357840000e-3 2.120909762580000e-3
2.142225260070000e-3 2.163754981860000e-3 2.185501080960000e-3 2.207465731990000e-3
2.229651131430000e-3 2.252059497840000e-3 2.274693072070000e-3 2.297554117510000e-3
2.320644920280000e-3 2.343967789470000e-3 2.367525057390000e-3 2.391319079800000e-3
2.415352236100000e-3 2.439626929640000e-3 2.464145587910000e-3 2.488910662780000e-3
2.513924630800000e-3 2.539189993380000e-3 2.564709277070000e-3 2.590485033830000e-3
2.616519841250000e-3 2.642816302830000e-3 2.669377048250000e-3 2.696204733590000e-3
2.723302041660000e-3 2.750671682200001e-3 2.778316392200000e-3 2.806238936150000e-3
2.834442106340001e-3 2.862928723100000e-3 2.891701635110000e-3 2.920763719710000e-3
2.950117883100000e-3 2.979767060740000e-3 3.009714217580000e-3 3.039962348340000e-3
3.070514477870000e-3 3.101373661410000e-3 3.132542984890000e-3 3.164025565290001e-3
3.195824550880000e-3 3.227943121590000e-3 3.260384489300000e-3 3.293151898180000e-3
3.326248624990000e-3 3.359677979430000e-3 3.393443304470000e-3 3.427547976670000e-3
3.461995406530000e-3 3.496789038810000e-3 3.531932352910000e-3 3.567428863180000e-3
3.603282119320000e-3 3.639495706670000e-3 3.676073246620000e-3 3.713018396970000e-3
3.750334852240000e-3 3.788026344130000e-3 3.826096641810000e-3 3.864549552340000e-3
3.903388921040001e-3 3.942618631890000e-3 3.982242607890000e-3 4.022264811470000e-3
4.062689244880000e-3 4.103519950610001e-3 4.144761011740000e-3 4.186416552430000e-3
4.228490738270001e-3 4.270987776700000e-3 4.313911917470000e-3 4.357267453030000e-3
4.401058718960000e-3 4.445290094440001e-3 4.489966002620000e-3 4.535090911150000e-3
4.580669332549999e-3 4.626705824700000e-3 4.673204991290000e-3 4.720171482270000e-3
4.767609994330000e-3 4.815525271369999e-3 4.863922104940000e-3 4.912805334780001e-3
4.962179849250000e-3 5.012050585840000e-3 5.062422531660000e-3 5.113300723949999e-3
5.164690250580000e-3 5.216596250530000e-3 5.269023914460000e-3 5.321978485170000e-3
5.375465258170000e-3 5.429489582170000e-3 5.484056859650000e-3 5.539172547390000e-3
5.594842157000000e-3 5.651071255490001e-3 5.707865465810000e-3 5.765230467430000e-3
5.823171996910000e-3 5.881695848440000e-3 5.940807874449999e-3 6.000513986210000e-3
6.060820154360000e-3 6.121732409580000e-3 6.183256843140001e-3 6.245399607540000e-3
6.308166917099999e-3 6.371565048610000e-3 6.435600341940001e-3 6.500279200660000e-3
6.565608092720000e-3 6.631593551060000e-3 6.698242174280001e-3 6.765560627310001e-3
6.833555642030000e-3 6.902234018010001e-3 6.971602623140000e-3 7.041668394349999e-3
7.112438338270000e-3 7.183919531939999e-3 7.256119123560000e-3 7.329044333130000e-3
7.402702453250000e-3 7.477100849779999e-3 7.552246962620000e-3 7.628148306460001e-3
7.704812471480000e-3 7.782247124170000e-3 7.860460008060000e-3 7.939458944500001e-3
8.019251833450001e-3 8.099846654260000e-3 8.181251466500001e-3 8.263474410690000e-3
8.346523709209999e-3 8.430407667060001e-3 8.515134672709999e-3 8.600713198910002e-3
8.687151803599999e-3 8.774459130709999e-3 8.862643911050000e-3 8.951714963159997e-3
9.041681194230000e-3 9.132551600959999e-3 9.224335270449998e-3 9.317041381159999e-3
9.410679203770000e-3 9.505258102150000e-3 9.600787534249999e-3 9.697277053110000e-3
9.794736307749998e-3 9.893175044190000e-3 9.992603106379999e-3 1.009303043720000e-2
1.019446707950000e-2 1.029692317700000e-2 1.040040897530000e-2 1.050493482330000e-2
1.061051117350000e-2 1.071714858360000e-2 1.082485771750000e-2 1.093364934630000e-2
1.104353434900000e-2 1.115452371450000e-2 1.126662854150000e-2 1.137986004080000e-2
1.149422953560000e-2 1.160974846300000e-2 1.172642837480000e-2 1.184428093930000e-2
1.196331794170000e-2 1.208355128590000e-2 1.220499299530000e-2 1.232765521420000e-2
1.245155020890000e-2 1.257669036890000e-2 1.270308820850000e-2 1.283075636750000e-2
1.295970761280000e-2 1.308995483960000e-2 1.322151107290000e-2 1.335438946830000e-2
1.348860331380000e-2 1.362416603080000e-2 1.376109117580000e-2 1.389939244140000e-2
1.403908365780000e-2 1.418017879420000e-2 1.432269196040000e-2 1.446663740770000e-2
1.461202953080000e-2 1.475888286900000e-2 1.490721210780000e-2 1.505703208030000e-2
1.520835776850000e-2 1.536120430510000e-2 1.551558697500000e-2 1.567152121650000e-2
1.582902262320000e-2 1.598810694530000e-2 1.614879009150000e-2 1.631108813010000e-2
1.647501729120000e-2 1.664059396760000e-2 1.680783471740000e-2 1.697675626460000e-2
1.714737550160000e-2 1.731970949050000e-2 1.749377546470000e-2 1.766959083110000e-2
1.784717317120000e-2 1.802654024360000e-2 1.820770998500000e-2 1.839070051250000e-2
1.857553012550000e-2 1.876221730690000e-2 1.895078072570000e-2 1.914123923840000e-2
1.933361189090000e-2 1.952791792080000e-2 1.972417675870000e-2 1.992240803070000e-2
2.012263156010000e-2 2.032486736950000e-2 2.052913568250000e-2 2.073545692620000e-2
2.094385173290000e-2 2.115434094220000e-2 2.136694560320000e-2 2.158168697660000e-2
2.179858653670000e-2 2.201766597360000e-2 2.223894719540000e-2 2.246245233050000e-2
2.268820372960000e-2 2.291622396790000e-2 2.314653584770000e-2 2.337916240040000e-2
2.361412688880000e-2 2.385145280960000e-2 2.409116389550000e-2 2.433328411790000e-2
2.457783768900000e-2 2.482484906430000e-2 2.507434294530000e-2 2.532634428140001e-2
2.558087827310000e-2 2.583797037390000e-2 2.609764629320000e-2 2.635993199900000e-2
2.662485371990000e-2 2.689243794840000e-2 2.716271144310000e-2 2.743570123150000e-2
2.771143461300000e-2 2.798993916100000e-2 2.827124272620000e-2 2.855537343930000e-2
2.884235971350000e-2 2.913223024770000e-2 2.942501402930000e-2 2.972074033670000e-2
3.001943874300000e-2 3.032113911810000e-2 3.062587163240000e-2 3.093366675940000e-2
3.124455527890000e-2 3.155856827990000e-2 3.187573716410000e-2 3.219609364850000e-2
3.251966976910000e-2 3.284649788380000e-2 3.317661067570000e-2 3.351004115629999e-2
3.384682266890000e-2 3.418698889200000e-2 3.453057384240000e-2 3.487761187909999e-2
3.522813770590000e-2 3.558218637600000e-2 3.593979329430000e-2 3.630099422180000e-2
3.666582527910000e-2 3.703432294940000e-2 3.740652408290001e-2 3.778246590000000e-2
3.816218599510000e-2 3.854572234070000e-2 3.893311329060000e-2 3.932439758430000e-2
3.971961435050000e-2 4.011880311120001e-2 4.052200378570000e-2 4.092925669430000e-2
4.134060256270001e-2 4.175608252580000e-2 4.217573813200000e-2 4.259961134710000e-2
4.302774455890001e-2 4.346018058099999e-2 4.389696265730000e-2 4.433813446650000e-2
4.478374012610001e-2 4.523382419700000e-2 4.568843168800000e-2 4.614760806030000e-2
4.661139923189999e-2 4.707985158220001e-2 4.755301195690000e-2 4.803092767240000e-2
4.851364652070000e-2 4.900121677410000e-2 4.949368719000001e-2 4.999110701590000e-2
5.049352599410000e-2 5.100099436700000e-2 5.151356288190000e-2 5.203128279589999e-2
5.255420588160000e-2 5.308238443170000e-2 5.361587126450001e-2 5.415471972910000e-2
5.469898371070000e-2 5.524871763640000e-2 5.580397647980000e-2 5.636481576740000e-2
5.693129158350000e-2 5.750346057620000e-2 5.808137996289999e-2 5.866510753600000e-2
5.925470166880000e-2 5.985022132110000e-2 6.045172604540000e-2 6.105927599270000e-2
6.167293191840000e-2 6.229275518880000e-2 6.291880778660000e-2 6.355115231760000e-2
6.418985201670000e-2 6.483497075460000e-2 6.548657304360001e-2 6.614472404450000e-2
6.680948957280000e-2 6.748093610590001e-2 6.815913078870000e-2 6.884414144150000e-2
6.953603656569999e-2 7.023488535159999e-2 7.094075768450001e-2 7.165372415229999e-2
7.237385605219999e-2 7.310122539810000e-2 7.383590492740000e-2 7.457796810870000e-2
7.532748914900001e-2 7.608454300099999e-2 7.684920537070000e-2 7.762155272490000e-2
7.840166229910000e-2 7.918961210490000e-2 7.998548093790001e-2 8.078934838559999e-2
8.160129483550000e-2 8.242140148290000e-2 8.324975033909999e-2 8.408642423980000e-2
8.493150685290001e-2 8.578508268749999e-2 8.664723710180001e-2 8.751805631209999e-2
8.839762740090000e-2 8.928603832610001e-2 9.018337792960001e-2 9.108973594600000e-2
9.200520301190000e-2 9.292987067480000e-2 9.386383140220001e-2 9.480717859089999e-2
9.576000657649999e-2 9.672241064260000e-2 9.769448703029999e-2 9.867633294819999e-2
9.966804658160001e-2 1.006697271030000e-1 1.016814746800000e-1 1.027033904900000e-1
1.037355767250000e-1 1.047781366030000e-1 1.058311743830000e-1 1.068947953680000e-1
1.079691059220000e-1 1.090542134770000e-1 1.101502265430000e-1 1.112572547240000e-1
1.123754087240000e-1 1.135048003580000e-1 1.146455425660000e-1 1.157977494240000e-1
1.169615361540000e-1 1.181370191350000e-1 1.193243159160000e-1 1.205235452280000e-1
1.217348269950000e-1 1.229582823460000e-1 1.241940336280000e-1 1.254422044170000e-1
1.267029195310000e-1 1.279763050420000e-1 1.292624882910000e-1 1.305615978960000e-1
1.318737637700000e-1 1.331991171290000e-1 1.345377905120000e-1 1.358899177860000e-1
1.372556341650000e-1 1.386350762210000e-1 1.400283819010000e-1 1.414356905360000e-1
1.428571428570000e-1 1.442928810120000e-1 1.457430485750000e-1 1.472077905650000e-1
1.486872534560000e-1 1.501815851970000e-1 1.516909352210000e-1 1.532154544650000e-1
1.547552953820000e-1 1.563106119580000e-1 1.578815597250000e-1 1.594682957800000e-1
1.610709787970000e-1 1.626897690460000e-1 1.643248284080000e-1 1.659763203900000e-1
1.676444101420000e-1 1.693292644740000e-1 1.710310518750000e-1 1.727499425220000e-1
1.744861083090000e-1 1.762397228510000e-1 1.780109615120000e-1 1.798000014180000e-1
1.816070214740000e-1 1.834322023840000e-1 1.852757266670000e-1 1.871377786760000e-1
1.890185446200000e-1 1.909182125750000e-1 1.928369725110000e-1 1.947750163050000e-1
1.967325377620000e-1 1.987097326380000e-1 2.007067986520000e-1 2.027239355130000e-1
2.047613449370000e-1 2.068192306660000e-1 2.088977984910000e-1 2.109972562690000e-1
2.131178139490000e-1 2.152596835880000e-1 2.174230793740000e-1 2.196082176500000e-1
2.218153169300000e-1 2.240445979270000e-1 2.262962835710000e-1 2.285705990310000e-1
2.308677717420000e-1 2.331880314220000e-1 2.355316101000000e-1 2.378987421350000e-1
2.402896642430000e-1 2.427046155170000e-1 2.451438374550000e-1 2.476075739810000e-1
2.500960714710000e-1 2.526095787760000e-1 2.551483472500000e-1 2.577126307710000e-1
2.603026857700000e-1 2.629187712550000e-1 2.655611488350000e-1 2.682300827520000e-1
2.709258399010000e-1 2.736486898590000e-1 2.763989049150000e-1 2.791767600910000e-1
2.819825331760000e-1 2.848165047490000e-1 2.876789582100000e-1 2.905701798070000e-1
2.934904586630000e-1 2.964400868110000e-1 2.994193592130000e-1 3.024285738020000e-1
3.054680315000000e-1 3.085380362550000e-1 3.116388950710000e-1 3.147709180370000e-1
3.179344183560000e-1 3.211297123820000e-1 3.243571196470000e-1 3.276169628950000e-1
3.309095681120000e-1 3.342352645610000e-1 3.375943848150000e-1 3.409872647890000e-1
3.444142437740000e-1 3.478756644700000e-1 3.513718730220000e-1 3.549032190550000e-1
3.584700557050000e-1 3.620727396600000e-1 3.657116311900000e-1 3.693870941880000e-1
3.730994962030000e-1 3.768492084790000e-1 3.806366059900000e-1 3.844620674780000e-1
3.883259754940000e-1 3.922287164310000e-1 3.961706805660000e-1 4.001522620999999e-1
4.041738591930000e-1 4.082358740090000e-1 4.123387127530000e-1 4.164827857110000e-1
4.206685072950000e-1 4.248962960800000e-1 4.291665748490000e-1 4.334797706340000e-1
4.378363147560000e-1 4.422366428749999e-1 4.466811950269999e-1 4.511704156700000e-1
4.557047537310000e-1 4.602846626470000e-1 4.649106004130000e-1 4.695830296260000e-1
4.743024175340000e-1 4.790692360780000e-1 4.838839619460000e-1 4.887470766130000e-1
4.936590663950000e-1 4.986204224950000e-1 5.036316410520000e-1 5.086932231940001e-1
5.138056750810000e-1 5.189695079650000e-1 5.241852382310000e-1 5.294533874590000e-1
5.347744824660000e-1 5.401490553670000e-1 5.455776436240000e-1 5.510607901000000e-1
5.565990431139999e-1 5.621929564960000e-1 5.678430896420000e-1 5.735500075710000e-1
5.793142809780000e-1 5.851364862960001e-1 5.910172057500001e-1 5.969570274180001e-1
6.029565452850000e-1 6.090163593100000e-1 6.151370754780000e-1 6.213193058660000e-1
6.275636687030000e-1 6.338707884290001e-1 6.402412957630000e-1 6.466758277590000e-1
6.531750278770000e-1 6.597395460430000e-1 6.663700387130000e-1 6.730671689420000e-1
6.798316064480000e-1 6.866640276820000e-1 6.935651158910000e-1 7.005355611900001e-1
7.075760606280000e-1 7.146873182620000e-1 7.218700452230000e-1 7.291249597910000e-1
7.364527874620000e-1 7.438542610260001e-1 7.513301206350000e-1 7.588811138830000e-1
7.665079958750000e-1 7.742115293039999e-1 7.819924845320000e-1 7.898516396610001e-1
7.977897806110001e-1 8.058077012040000e-1 8.139062032389999e-1 8.220860965720000e-1
8.303481992000000e-1 8.386933373400000e-1 8.471223455130000e-1 8.556360666260000e-1
8.642353520590000e-1 8.729210617470001e-1 8.816940642690000e-1 8.905552369320000e-1
8.995054658610000e-1 9.085456460860000e-1 9.176766816330000e-1 9.268994856119999e-1
9.362149803130000e-1 9.456240972920000e-1 9.551277774680001e-1 9.647269712189999e-1
9.744226384699999e-1 9.842157487970001e-1 9.941072815200000e-1 1.004098225800000e0
1.014189580740000e0 1.024382355480000e0 1.034677569310000e0 1.045076251760000e0
1.055579442700000e0 1.066188192470000e0 1.076903561950000e0 1.087726622680000e0
1.098658456980000e0 1.109700158040000e0 1.120852830050000e0 1.132117588260000e0
1.143495559190000e0 1.154987880620000e0 1.166595701800000e0 1.178320183520000e0
1.190162498240000e0 1.202123830210000e0 1.214205375560000e0 1.226408342450000e0
1.238733951210000e0 1.251183434390000e0 1.263758036960000e0 1.276459016390000e0
1.289287642780000e0 1.302245199010000e0 1.315332980840000e0 1.328552297070000e0
1.341904469630000e0 1.355390833770000e0 1.369012738110000e0 1.382771544870000e0
1.396668629930000e0 1.410705383020000e0 1.424883207830000e0 1.439203522140000e0
1.453667758010000e0 1.468277361860000e0 1.483033794680000e0 1.497938532100000e0
1.512993064630000e0 1.528198897730000e0 1.543557551990000e0 1.559070563290000e0
1.574739482950000e0 1.590565877870000e0 1.606551330700000e0 1.622697440000000e0
1.639005820400000e0 1.655478102750000e0 1.672115934280000e0 1.688920978810000e0
1.705894916840000e0 1.723039445780000e0 1.740356280100000e0 1.757847151500000e0
1.775513809080000e0 1.793358019520000e0 1.811381567260000e0 1.829586254670000e0
1.847973902220000e0 1.866546348700000e0 1.885305451380000e0 1.904253086170000e0
1.923391147860000e0 1.942721550260000e0 1.962246226440000e0 1.981967128880000e0
2.001886229680000e0 2.022005520770000e0 2.042327014100000e0 2.062852741830000e0
2.083584756550000e0 2.104525131490000e0 2.125675960700000e0 2.147039359270000e0
2.168617463560000e0 2.190412431420000e0 2.212426442330000e0 2.234661697740000e0
2.257120421180000e0 2.279804858540000e0 2.302717278290000e0 2.325859971680000e0
2.349235253010000e0 2.372845459830000e0 2.396692953160000e0 2.420780117790000e0
2.445109362450000e0 2.469683120080000e0 2.494503848080000e0 2.519574028550000e0
2.544896168520000e0 2.570472800220000e0 2.596306481350000e0 2.622399795290000e0
2.648755351390000e0 2.675375785240000e0 2.702263758890000e0 2.729421961180000e0
2.756853107930000e0 2.784559942290000e0 2.812545234970000e0 2.840811784510000e0
2.869362417600000e0 2.898199989320000e0 2.927327383460000e0 2.956747512770000e0
2.986463319300000e0 3.016477774650000e0 3.046793880290000e0 3.077414667860000e0
3.108343199460000e0 3.139582567970000e0 3.171135897350000e0 3.203006342960000e0
3.235197091880000e0 3.267711363210000e0 3.300552408390000e0 3.333723511560000e0
3.367227989870000e0 3.401069193780000e0 3.435250507440000e0 3.469775349010000e0
3.504647171020000e0 3.539869460660000e0 3.575445740190000e0 3.611379567280000e0
3.647674535340000e0 3.684334273880000e0 3.721362448930000e0 3.758762763320000e0
3.796538957120000e0 3.834694807990000e0 3.873234131520000e0 3.912160781700000e0
3.951478651220000e0 3.991191671890000e0 4.031303815060000e0 4.071819091970000e0
4.112741554180000e0 4.154075293970000e0 4.195824444760000e0 4.237993181480000e0
4.280585721060000e0 4.323606322770000e0 4.367059288720000e0 4.410948964240000e0
4.455279738330000e0 4.500056044110000e0 4.545282359240000e0 4.590963206390000e0
4.637103153690000e0 4.683706815180000e0 4.730778851240000e0 4.778323969130000e0
4.826346923410000e0 4.874852516390000e0 4.923845598690000e0 4.973331069660000e0
5.023313877870000e0 5.073799021660000e0 5.124791549580000e0 5.176296560930000e0
5.228319206240000e0 5.280864687830000e0 5.333938260290000e0 5.387545231030000e0
5.441690960770000e0 5.496380864150000e0 5.551620410190000e0 5.607415122900000e0
5.663770581800000e0 5.720692422470000e0 5.778186337150000e0 5.836258075280000e0
5.894913444090000e0 5.954158309150000e0 6.013998595000000e0 6.074440285720000e0
6.135489425540000e0 6.197152119410000e0 6.259434533650000e0 6.322342896570000e0
6.385883499040000e0 6.450062695190000e0 6.514886902980000e0 6.580362604890000e0
6.646496348540000e0 6.713294747370000e0 6.780764481260000e0 6.848912297260000e0
6.917745010190000e0 6.987269503390000e0 7.057492729360000e0 7.128421710490000e0
7.200063539720000e0 7.272425381310000e0 7.345514471500000e0 7.419338119260000e0
7.493903707010000e0 7.569218691380000e0 7.645290603930000e0 7.722127051900000e0
7.799735719020000e0 7.878124366210000e0 7.957300832400000e0 8.037273035300000e0
8.118048972210000e0 8.199636720779999e0 8.282044439850001e0 8.365280370270000e0
8.449352835699999e0 8.534270243450001e0 8.620041085340000e0 8.706673938520000e0
8.794177466350000e0 8.882560419250000e0 8.971831635599999e0 9.062000042590000e0
9.153074657130000e0 9.245064586770001e0 9.337979030570001e0 9.431827280060000e0
9.526618720129999e0 9.622362830020000e0 9.719069184200000e0 9.816747453410001e0
9.915407405540000e0 1.001505890670000e1 1.011571192200000e1 1.021737651700000e1
1.032006285820000e1 1.042378121420000e1 1.052854195710000e1 1.063435556290000e1
1.074123261310000e1 1.084918379560000e1 1.095821990550000e1 1.106835184650000e1
1.117959063190000e1 1.129194738570000e1 1.140543334360000e1 1.152005985440000e1
1.163583838070000e1 1.175278050060000e1 1.187089790830000e1 1.199020241580000e1
1.211070595340000e1 1.223242057170000e1 1.235535844230000e1 1.247953185910000e1
1.260495323940000e1 1.273163512550000e1 1.285959018580000e1 1.298883121580000e1
1.311937113970000e1 1.325122301170000e1 1.338440001710000e1 1.351891547360000e1
1.365478283290000e1 1.379201568180000e1 1.393062774390000e1 1.407063288030000e1
1.421204509170000e1 1.435487851950000e1 1.449914744710000e1 1.464486630150000e1
1.479204965480000e1 1.494071222530000e1 1.509086887950000e1 1.524253463320000e1
1.539572465310000e1 1.555045425820000e1 1.570673892170000e1 1.586459427220000e1
1.602403609540000e1 1.618508033550000e1 1.634774309720000e1 1.651204064670000e1
1.667798941410000e1 1.684560599440000e1 1.701490714930000e1 1.718590980900000e1
1.735863107410000e1 1.753308821680000e1 1.770929868280000e1 1.788728009350000e1
1.806705024720000e1 1.824862712090000e1 1.843202887250000e1 1.861727384240000e1
1.880438055510000e1 1.899336772160000e1 1.918425424070000e1 1.937705920120000e1
1.957180188380000e1 1.976850176290000e1 1.996717850860000e1 2.016785198880000e1
2.037054227100000e1 2.057526962440000e1 2.078205452190000e1 2.099091764220000e1
2.120187987180000e1 2.141496230700000e1 2.163018625630000e1 2.184757324220000e1
2.206714500370000e1 2.228892349810000e1 2.251293090330000e1 2.273918962050000e1
2.296772227550000e1 2.319855172190000e1 2.343170104280000e1 2.366719355340000e1
2.390505280300000e1 2.414530257780000e1 2.438796690300000e1 2.463307004530000e1
2.488063651500000e1 2.513069106920000e1 2.538325871330000e1 2.563836470450000e1
2.589603455360000e1 2.615629402770000e1 2.641916915300000e1 2.668468621720000e1
2.695287177220000e1 2.722375263690000e1 2.749735589960000e1 2.777370892080000e1
2.805283933600000e1 2.833477505850000e1 2.861954428210000e1 2.890717548400000e1
2.919769742760000e1 2.949113916520000e1 2.978753004130000e1 3.008689969520000e1
3.038927806420000e1 3.069469538630000e1 3.100318220360000e1 3.131476936490000e1
3.162948802920000e1 3.194736966860000e1 3.226844607170000e1 3.259274934630001e1
3.292031192290000e1 3.325116655820000e1 3.358534633790000e1 3.392288468020000e1
3.426381533920000e1 3.460817240830000e1 3.495599032350000e1 3.530730386680000e1
3.566214817000001e1 3.602055871760000e1 3.638257135120000e1 3.674822227230000e1
3.711754804610000e1 3.749058560580000e1 3.786737225520000e1 3.824794567340000e1
3.863234391800000e1 3.902060542930000e1 3.941276903350000e1 3.980887394760000e1
4.020895978220000e1 4.061306654630000e1 4.102123465090000e1 4.143350491310001e1
4.184991856040000e1 4.227051723440001e1 4.269534299530000e1 4.312443832610000e1
4.355784613670000e1 4.399560976820000e1 4.443777299730001e1 4.488438004080001e1
4.533547555970000e1 4.579110466390000e1 4.625131291670001e1 4.671614633940000e1
4.718565141570000e1 4.765987509640000e1 4.813886480430000e1 4.862266843880001e1
4.911133438070000e1 4.960491149700001e1 5.010344914570000e1 5.060699718110000e1
5.111560595840000e1 5.162932633890001e1 5.214820969500000e1 5.267230791560000e1
5.320167341090000e1 5.373635911780000e1 5.427641850540001e1 5.482190558020001e1
5.537287489110000e1 5.592938153570000e1 5.649148116500001e1 5.705922998960000e1
5.763268478470000e1 5.821190289630001e1 5.879694224670001e1 5.938786134030000e1
5.998471926950000e1 6.058757572070000e1 6.119649097990000e1 6.181152593920000e1
6.243274210260001e1 6.306020159230000e1 6.369396715460001e1 6.433410216680000e1
6.498067064280001e1 6.563373724000001e1 6.629336726560000e1 6.695962668320000e1
6.763258211930000e1 6.831230086990001e1 6.899885090750001e1 6.969230088780001e1
7.039272015620000e1 7.110017875530001e1 7.181474743150000e1 7.253649764230001e1
7.326550156330001e1 7.400183209550001e1 7.474556287260000e1 7.549676826820001e1
7.625552340370000e1 7.702190415490000e1 7.779598716080000e1 7.857784983030000e1
7.936757035020000e1 8.016522769330001e1 8.097090162590000e1 8.178467271620001e1
8.260662234200000e1 8.343683269880001e1 8.427538680840000e1 8.512236852690000e1
8.597786255320001e1 8.684195443740000e1 8.771473058940002e1 8.859627828750000e1
8.948668568740000e1 9.038604183030001e1 9.129443665280000e1 9.221196099500000e1
9.313870661020001e1 9.407476617360000e1 9.502023329210001e1 9.597520251300001e1
9.693976933420000e1 9.791403021310002e1 9.889808257660000e1 9.989202483080000e1
1.008959563710000e2
</PP_R>
<PP_RAB>
3.541074538090000e-6 3.576662928860000e-6 3.612608988899999e-6 3.648916312850000e-6
3.685588531470000e-6 3.722629312010000e-6 3.760042358590000e-6 3.797831412540000e-6
3.836000252790001e-6 3.874552696270000e-6 3.913492598240000e-6 3.952823852740001e-6
3.992550392910000e-6 4.032676191449999e-6 4.073205260970000e-6 4.114141654410000e-6
4.155489465450000e-6 4.197252828890000e-6 4.239435921119999e-6 4.282042960470001e-6
4.325078207680001e-6 4.368545966319999e-6 4.412450583200000e-6 4.456796448810001e-6
4.501587997780000e-6 4.546829709300000e-6 4.592526107580000e-6 4.638681762300000e-6
4.685301289060001e-6 4.732389349859999e-6 4.779950653529999e-6 4.827989956250000e-6
4.876512061990001e-6 4.925521823000000e-6 4.975024140300000e-6 5.025023964160001e-6
5.075526294600001e-6 5.126536181900000e-6 5.178058727090001e-6 5.230099082469999e-6
5.282662452120000e-6 5.335754092410000e-6 5.389379312559999e-6 5.443543475129999e-6
5.498251996590000e-6 5.553510347820000e-6 5.609324054720000e-6 5.665698698700000e-6
5.722639917270000e-6 5.780153404599999e-6 5.838244912090000e-6 5.896920248940001e-6
5.956185282719999e-6 6.016045939999999e-6 6.076508206880000e-6 6.137578129650000e-6
6.199261815339998e-6 6.261565432380001e-6 6.324495211190001e-6 6.388057444779999e-6
6.452258489450003e-6 6.517104765339999e-6 6.582602757130001e-6 6.648759014690000e-6
6.715580153689999e-6 6.783072856300000e-6 6.851243871850000e-6 6.920100017499999e-6
6.989648178910000e-6 7.059895310969999e-6 7.130848438440001e-6 7.202514656699998e-6
7.274901132430001e-6 7.348015104329999e-6 7.421863883860000e-6 7.496454855970001e-6
7.571795479810000e-6 7.647893289510000e-6 7.724755894920000e-6 7.802390982340000e-6
7.880806315369999e-6 7.960009735600000e-6 8.040009163430000e-6 8.120812598890000e-6
8.202428122360001e-6 8.284863895490000e-6 8.368128161909999e-6 8.452229248120002e-6
8.537175564290001e-6 8.622975605140002e-6 8.709637950739999e-6 8.797171267380001e-6
8.885584308490001e-6 8.974885915430001e-6 9.065085018440000e-6 9.156190637510001e-6
9.248211883269999e-6 9.341157957929999e-6 9.435038156160001e-6 9.529861866080001e-6
9.625638570120000e-6 9.722377846039999e-6 9.820089367849999e-6 9.918782906779999e-6
1.001846833230000e-5 1.011915561290000e-5 1.022085481760000e-5 1.032357611630000e-5
1.042732978110000e-5 1.053212618770000e-5 1.063797581560000e-5 1.074488925000000e-5
1.085287718230000e-5 1.096195041130000e-5 1.107211984450000e-5 1.118339649890000e-5
1.129579150230000e-5 1.140931609420000e-5 1.152398162730000e-5 1.163979956810000e-5
1.175678149860000e-5 1.187493911700000e-5 1.199428423930000e-5 1.211482879990000e-5
1.223658485360000e-5 1.235956457590000e-5 1.248378026500000e-5 1.260924434250000e-5