
     Program PWSCF v.7.1 starts on  6Jun2023 at  9: 8:19 

     This program is part of the open-source Quantum ESPRESSO suite
     for quantum simulation of materials; please cite
         "P. Giannozzi et al., J. Phys.:Condens. Matter 21 395502 (2009);
         "P. Giannozzi et al., J. Phys.:Condens. Matter 29 465901 (2017);
         "P. Giannozzi et al., J. Chem. Phys. 152 154105 (2020);
          URL http://www.quantum-espresso.org", 
     in publications or presentations arising from this work. More details at
     http://www.quantum-espresso.org/quote

     Parallel version (MPI), running on     4 processors

     MPI processes distributed on     1 nodes
     0 MiB available memory on the printing compute node when the environment starts
 
     Reading input from espresso.pwi
Warning: card &CELL ignored
Warning: card / ignored

     Current dimensions of program PWSCF are:
     Max number of different atomic species (ntypx) = 10
     Max number of k-points (npk) =  40000
     Max angular momentum in pseudopotentials (lmaxx) =  4
 
     Reading input from environ.in:
     * Environ restarting
     * setting up vacuum environment
     * using electronic solvent mode
     * setting boundary derivatives method to SCCS default
     
     file O.pbe-rrkjus.UPF: wavefunction(s)  2S renormalized
     file H.pbe-rrkjus.UPF: wavefunction(s)  1S renormalized
     Message from routine setup:
     using ibrav=0 with symmetry is DISCOURAGED, use correct ibrav instead
 
     R & G space division:  proc/nbgrp/npool/nimage =       4
     Subspace diagonalization in iterative solution of the eigenvalue problem:
     a serial algorithm will be used

 
     Parallelization info
     --------------------
     sticks:   dense  smooth     PW     G-vecs:    dense   smooth      PW
     Min        4797    1921    478               499673   126471   15769
     Max        4798    1922    481               499678   126473   15770
     Sum       19189    7685   1917              1998697   505887   63077
 
     Using Slab Decomposition
 


     bravais-lattice index     =            0
     lattice parameter (alat)  =      28.3459  a.u.
     unit-cell volume          =   22775.6289 (a.u.)^3
     number of atoms/cell      =            3
     number of atomic types    =            2
     number of electrons       =         8.00
     number of Kohn-Sham states=            4
     kinetic-energy cutoff     =      30.0000  Ry
     charge density cutoff     =     300.0000  Ry
     scf convergence threshold =      1.0E-08
     mixing beta               =       0.4000
     number of iterations used =            8  plain     mixing
     energy convergence thresh.=      1.0E-04
     force convergence thresh. =      1.0E-03
     Exchange-correlation= SLA  PW   PBE  PBE
                           (   1   4   3   4   0   0   0)
     nstep                     =           50


     ================================================================================
 
                                  Environ Setup Summary

     ================================================================================
 
     Please cite

          O. Andreussi, I. Dabo and N. Marzari, J. Chem. Phys. 136, 064102 (2012)

     in publications or presentations arising from this work.

     ================================================================================
 
     Parameters
     ==========

     compensation onset threshold      =               0.1000E+00

     Electrostatic Setup
     ===================

     electrostatic problem to solve    =                  poisson
     numerical solver adopted          =                   direct
     type of auxiliary density adopted =                     none
     numerical core for poisson        =                      fft
     type of pbc corrections           =                parabolic
     numerical core for corrections    =                      1da

     ================================================================================
 

     celldm(1)=  28.345892  celldm(2)=   0.000000  celldm(3)=   0.000000
     celldm(4)=   0.000000  celldm(5)=   0.000000  celldm(6)=   0.000000

     crystal axes: (cart. coord. in units of alat)
               a(1) = (   1.000000   0.000000   0.000000 )  
               a(2) = (   0.000000   1.000000   0.000000 )  
               a(3) = (   0.000000   0.000000   1.000000 )  

     reciprocal axes: (cart. coord. in units 2 pi/alat)
               b(1) = (  1.000000  0.000000  0.000000 )  
               b(2) = (  0.000000  1.000000  0.000000 )  
               b(3) = (  0.000000  0.000000  1.000000 )  


     PseudoPot. # 1 for O  read from file:
     ../pseudos/O.pbe-rrkjus.UPF
     MD5 check sum: fadcf19ee70a498d3030e2e79cf929a4
     Pseudo is Ultrasoft, Zval =  6.0
     Generated by new atomic code, or converted to UPF format
     Using radial grid of 1269 points,  4 beta functions with: 
                l(1) =   0
                l(2) =   0
                l(3) =   1
                l(4) =   1
     Q(r) pseudized with 0 coefficients 


     PseudoPot. # 2 for H  read from file:
     ../pseudos/H.pbe-rrkjus.UPF
     MD5 check sum: 2d52a7f45632fd764c17cc6affed14c8
     Pseudo is Ultrasoft, Zval =  1.0
     Generated by new atomic code, or converted to UPF format
     Using radial grid of 1061 points,  2 beta functions with: 
                l(1) =   0
                l(2) =   0
     Q(r) pseudized with 0 coefficients 


     atomic species   valence    mass     pseudopotential
        O              6.00    15.99900     O ( 1.00)
        H              1.00     1.00800     H ( 1.00)

      4 Sym. Ops. (no inversion) found



   Cartesian axes

     site n.     atom                  positions (alat units)
         1           O   tau(   1) = (   0.5000000   0.5000000   0.5198770  )
         2           H   tau(   2) = (   0.5000000   0.5508826   0.4801230  )
         3           H   tau(   3) = (   0.5000000   0.4491174   0.4801230  )

     number of k points=     1
                       cart. coord. in units 2pi/alat
        k(    1) = (   0.0000000   0.0000000   0.0000000), wk =   2.0000000

     Dense  grid:  1998697 G-vectors     FFT dimensions: ( 160, 160, 160)

     Smooth grid:   505887 G-vectors     FFT dimensions: ( 100, 100, 100)

     Estimated max dynamical RAM per process >     676.36 MB

     Estimated total dynamical RAM >       2.64 GB

     Atomic positions and unit cell read from directory:
     ./H2O_vacuum.save/
 

     The initial density is read from file :
     ./H2O_vacuum.save/charge-density


     add environment contribution to local potential

     negative rho (up, down):  4.584E-04 0.000E+00
     Starting wfcs from file

     total cpu time spent up to now is        9.8 secs

     Self-consistent Calculation

     iteration #  1     ecut=    30.00 Ry     beta= 0.40
     Davidson diagonalization with overlap
     ethr =  1.00E-05,  avg # of iterations =  1.0

     Threshold (ethr) on eigenvalues was too large:
     Diagonalizing with lowered threshold

     Davidson diagonalization with overlap
     ethr =  1.21E-10,  avg # of iterations =  1.0

     negative rho (up, down):  4.583E-04 0.000E+00

     the potential shift due to the Gaussian-smeared nuclei is    -0.0075 ev

     total cpu time spent up to now is       17.9 secs

     End of self-consistent calculation

          k = 0.0000 0.0000 0.0000 ( 63077 PWs)   bands (ev):

   -25.3492 -13.1343  -9.2666  -7.2287

     highest occupied level (ev):    -7.2287

!    total energy              =     -34.26813843 Ry
     estimated scf accuracy    <          9.9E-09 Ry

     The total energy is the sum of the following terms:
     one-electron contribution =     -69.38765872 Ry
     hartree contribution      =      36.10519888 Ry
     xc contribution           =      -8.41057895 Ry
     ewald contribution        =       7.40859792 Ry
     electrostatic embedding   =       0.00009805 Ry
     correction to one-el term =       0.01620439 Ry

     WARNING: you are using the parabolic pbc correction;
              the potential shift above must be added to 
              band and Fermi energies.

     convergence has been achieved in   1 iterations

     Forces acting on atoms (cartesian axes, Ry/au):

     atom    1 type  1   force =     0.00000000    0.00000000    0.01121571
     atom    2 type  2   force =     0.00000000    0.01196363   -0.00560785
     atom    3 type  2   force =     0.00000000   -0.01196363   -0.00560785

     Total force =     0.021793     Total SCF correction =     0.000107


     Computing stress (Cartesian axis) and pressure

          total   stress  (Ry/bohr**3)                   (kbar)     P=       -0.02
  -0.00000097   0.00000000   0.00000000           -0.14        0.00        0.00
   0.00000000   0.00000076   0.00000000            0.00        0.11        0.00
   0.00000000   0.00000000  -0.00000030            0.00        0.00       -0.04


     BFGS Geometry Optimization
     Energy error            =      0.0E+00 Ry
     Gradient error          =      1.2E-02 Ry/Bohr

     number of scf cycles    =   1
     number of bfgs steps    =   0

     energy             new  =     -34.2681384296 Ry

     new trust radius        =       0.0132127392 bohr
     new conv_thr            =       0.0000000100 Ry


ATOMIC_POSITIONS (angstrom)
O             7.5000000000        7.5000000000        7.8040895960
H             7.5000000000        8.2695698808        7.1988779520
H             7.5000000000        6.7304301192        7.1988779520



     Writing config-only to output data dir ./H2O_vacuum.save/
     NEW-OLD atomic charge density approx. for the potential

     negative rho (up, down):  7.162E-04 0.000E+00

     add environment contribution to local potential

     total cpu time spent up to now is       28.6 secs

     Self-consistent Calculation

     iteration #  1     ecut=    30.00 Ry     beta= 0.40
     Davidson diagonalization with overlap
     ethr =  1.00E-06,  avg # of iterations =  3.0

     negative rho (up, down):  5.701E-04 0.000E+00

     add environment contribution to local potential

     total cpu time spent up to now is       33.3 secs

     total energy              =     -34.26811767 Ry
     estimated scf accuracy    <       0.00045660 Ry
     electrostatic embedding   =       0.00009831 Ry
     correction to one-el term =       0.01617751 Ry

     iteration #  2     ecut=    30.00 Ry     beta= 0.40
     Davidson diagonalization with overlap
     ethr =  5.71E-06,  avg # of iterations =  2.0

     negative rho (up, down):  4.994E-04 0.000E+00

     add environment contribution to local potential

     total cpu time spent up to now is       38.1 secs

     total energy              =     -34.26821001 Ry
     estimated scf accuracy    <       0.00001894 Ry
     electrostatic embedding   =       0.00009767 Ry
     correction to one-el term =       0.01627012 Ry

     iteration #  3     ecut=    30.00 Ry     beta= 0.40
     Davidson diagonalization with overlap
     ethr =  2.37E-07,  avg # of iterations =  1.0

     negative rho (up, down):  4.825E-04 0.000E+00

     add environment contribution to local potential

     total cpu time spent up to now is       43.0 secs

     total energy              =     -34.26820884 Ry
     estimated scf accuracy    <       0.00000548 Ry
     electrostatic embedding   =       0.00009836 Ry
     correction to one-el term =       0.01625101 Ry

     iteration #  4     ecut=    30.00 Ry     beta= 0.40
     Davidson diagonalization with overlap
     ethr =  6.85E-08,  avg # of iterations =  2.0

     negative rho (up, down):  4.589E-04 0.000E+00

     add environment contribution to local potential

     total cpu time spent up to now is       47.9 secs

     total energy              =     -34.26820975 Ry
     estimated scf accuracy    <       0.00000196 Ry
     electrostatic embedding   =       0.00009911 Ry
     correction to one-el term =       0.01622569 Ry

     iteration #  5     ecut=    30.00 Ry     beta= 0.40
     Davidson diagonalization with overlap
     ethr =  2.44E-08,  avg # of iterations =  2.0

     negative rho (up, down):  4.628E-04 0.000E+00

     add environment contribution to local potential

     total cpu time spent up to now is       52.7 secs

     total energy              =     -34.26821022 Ry
     estimated scf accuracy    <       0.00000010 Ry
     electrostatic embedding   =       0.00009883 Ry
     correction to one-el term =       0.01623152 Ry

     iteration #  6     ecut=    30.00 Ry     beta= 0.40
     Davidson diagonalization with overlap
     ethr =  1.26E-09,  avg # of iterations =  2.0

     negative rho (up, down):  4.562E-04 0.000E+00

     the potential shift due to the Gaussian-smeared nuclei is    -0.0075 ev

     total cpu time spent up to now is       56.6 secs

     End of self-consistent calculation

          k = 0.0000 0.0000 0.0000 ( 63077 PWs)   bands (ev):

   -25.2389 -13.0199  -9.2705  -7.2073

     highest occupied level (ev):    -7.2073

!    total energy              =     -34.26821026 Ry
     estimated scf accuracy    <          6.3E-10 Ry

     The total energy is the sum of the following terms:
     one-electron contribution =     -69.14593545 Ry
     hartree contribution      =      35.98994380 Ry
     xc contribution           =      -8.39133347 Ry
     ewald contribution        =       7.26279023 Ry
     electrostatic embedding   =       0.00009882 Ry
     correction to one-el term =       0.01622581 Ry

     WARNING: you are using the parabolic pbc correction;
              the potential shift above must be added to 
              band and Fermi energies.

     convergence has been achieved in   6 iterations

     Forces acting on atoms (cartesian axes, Ry/au):

     atom    1 type  1   force =     0.00000000    0.00000000   -0.01311512
     atom    2 type  2   force =     0.00000000   -0.00420088    0.00655756
     atom    3 type  2   force =     0.00000000    0.00420088    0.00655756

     Total force =     0.017126     Total SCF correction =     0.000020


     Computing stress (Cartesian axis) and pressure

          total   stress  (Ry/bohr**3)                   (kbar)     P=       -0.18
  -0.00000095   0.00000000   0.00000000           -0.14        0.00        0.00
   0.00000000  -0.00000127   0.00000000            0.00       -0.19        0.00
   0.00000000   0.00000000  -0.00000149            0.00        0.00       -0.22

     Energy error            =      7.2E-05 Ry
     Gradient error          =      1.3E-02 Ry/Bohr

     number of scf cycles    =   2
     number of bfgs steps    =   1

     energy             old  =     -34.2681384296 Ry
     energy             new  =     -34.2682102625 Ry

     CASE: energy            _new < energy            _old

     new trust radius        =       0.0071843933 bohr
     new conv_thr            =            1.0E-10 Ry


ATOMIC_POSITIONS (angstrom)
O             7.5000000000        7.5000000000        7.8002877788
H             7.5000000000        8.2686048737        7.2007788606
H             7.5000000000        6.7313951263        7.2007788606



     Writing config-only to output data dir ./H2O_vacuum.save/
     NEW-OLD atomic charge density approx. for the potential

     negative rho (up, down):  5.979E-04 0.000E+00

     add environment contribution to local potential

     total cpu time spent up to now is       74.9 secs

     Self-consistent Calculation

     iteration #  1     ecut=    30.00 Ry     beta= 0.40
     Davidson diagonalization with overlap
     ethr =  1.00E-06,  avg # of iterations =  3.0

     negative rho (up, down):  5.278E-04 0.000E+00

     add environment contribution to local potential

     total cpu time spent up to now is       80.2 secs

     total energy              =     -34.26828238 Ry
     estimated scf accuracy    <       0.00007489 Ry
     electrostatic embedding   =       0.00009865 Ry
     correction to one-el term =       0.01623886 Ry

     iteration #  2     ecut=    30.00 Ry     beta= 0.40
     Davidson diagonalization with overlap
     ethr =  9.36E-07,  avg # of iterations =  2.0

     negative rho (up, down):  4.941E-04 0.000E+00

     add environment contribution to local potential

     total cpu time spent up to now is       85.3 secs

     total energy              =     -34.26829923 Ry
     estimated scf accuracy    <       0.00000349 Ry
     electrostatic embedding   =       0.00009882 Ry
     correction to one-el term =       0.01619935 Ry

     iteration #  3     ecut=    30.00 Ry     beta= 0.40
     Davidson diagonalization with overlap
     ethr =  4.36E-08,  avg # of iterations =  1.0

     negative rho (up, down):  4.709E-04 0.000E+00

     add environment contribution to local potential

     total cpu time spent up to now is       90.2 secs

     total energy              =     -34.26829900 Ry
     estimated scf accuracy    <       0.00000104 Ry
     electrostatic embedding   =       0.00009842 Ry
     correction to one-el term =       0.01620634 Ry

     iteration #  4     ecut=    30.00 Ry     beta= 0.40
     Davidson diagonalization with overlap
     ethr =  1.30E-08,  avg # of iterations =  2.0

     negative rho (up, down):  4.627E-04 0.000E+00

     add environment contribution to local potential

     total cpu time spent up to now is       96.2 secs

     total energy              =     -34.26829917 Ry
     estimated scf accuracy    <       0.00000050 Ry
     electrostatic embedding   =       0.00009792 Ry
     correction to one-el term =       0.01621542 Ry

     iteration #  5     ecut=    30.00 Ry     beta= 0.40
     Davidson diagonalization with overlap
     ethr =  6.25E-09,  avg # of iterations =  2.0

     negative rho (up, down):  4.596E-04 0.000E+00

     add environment contribution to local potential

     total cpu time spent up to now is      101.4 secs

     total energy              =     -34.26829926 Ry
     estimated scf accuracy    <       0.00000001 Ry
     electrostatic embedding   =       0.00009803 Ry
     correction to one-el term =       0.01621249 Ry

     iteration #  6     ecut=    30.00 Ry     beta= 0.40
     Davidson diagonalization with overlap
     ethr =  1.44E-10,  avg # of iterations =  2.0

     negative rho (up, down):  4.580E-04 0.000E+00

     add environment contribution to local potential

     total cpu time spent up to now is      106.9 secs

     total energy              =     -34.26829926 Ry
     estimated scf accuracy    <          4.6E-09 Ry
     electrostatic embedding   =       0.00009803 Ry
     correction to one-el term =       0.01621412 Ry

     iteration #  7     ecut=    30.00 Ry     beta= 0.40
     Davidson diagonalization with overlap
     ethr =  5.73E-11,  avg # of iterations =  2.0

     negative rho (up, down):  4.574E-04 0.000E+00

     add environment contribution to local potential

     total cpu time spent up to now is      112.3 secs

     total energy              =     -34.26829926 Ry
     estimated scf accuracy    <          8.0E-10 Ry
     electrostatic embedding   =       0.00009805 Ry
     correction to one-el term =       0.01621380 Ry

     iteration #  8     ecut=    30.00 Ry     beta= 0.40
     Davidson diagonalization with overlap
     ethr =  1.00E-11,  avg # of iterations =  2.0

     negative rho (up, down):  4.570E-04 0.000E+00

     the potential shift due to the Gaussian-smeared nuclei is    -0.0075 ev

     total cpu time spent up to now is      116.1 secs

     End of self-consistent calculation

          k = 0.0000 0.0000 0.0000 ( 63077 PWs)   bands (ev):

   -25.2777 -13.0813  -9.2539  -7.2146

     highest occupied level (ev):    -7.2146

!    total energy              =     -34.26829926 Ry
     estimated scf accuracy    <          2.2E-12 Ry

     The total energy is the sum of the following terms:
     one-electron contribution =     -69.24273983 Ry
     hartree contribution      =      36.03677862 Ry
     xc contribution           =      -8.39913959 Ry
     ewald contribution        =       7.32048958 Ry
     electrostatic embedding   =       0.00009804 Ry
     correction to one-el term =       0.01621393 Ry

     WARNING: you are using the parabolic pbc correction;
              the potential shift above must be added to 
              band and Fermi energies.

     convergence has been achieved in   8 iterations

     Forces acting on atoms (cartesian axes, Ry/au):

     atom    1 type  1   force =     0.00000000    0.00000000   -0.00240707
     atom    2 type  2   force =     0.00000000    0.00139192    0.00120353
     atom    3 type  2   force =     0.00000000   -0.00139192    0.00120353

     Total force =     0.003545     Total SCF correction =     0.000002


     Computing stress (Cartesian axis) and pressure

          total   stress  (Ry/bohr**3)                   (kbar)     P=       -0.12
  -0.00000095   0.00000000   0.00000000           -0.14        0.00        0.00
   0.00000000  -0.00000056   0.00000000            0.00       -0.08        0.00
   0.00000000   0.00000000  -0.00000096            0.00        0.00       -0.14

     Energy error            =      8.9E-05 Ry
     Gradient error          =      2.4E-03 Ry/Bohr

     number of scf cycles    =   3
     number of bfgs steps    =   2

     energy             old  =     -34.2682102625 Ry
     energy             new  =     -34.2682992558 Ry

     CASE: energy            _new < energy            _old

     new trust radius        =       0.0027119851 bohr
     new conv_thr            =            1.0E-10 Ry


ATOMIC_POSITIONS (angstrom)
O             7.5000000000        7.5000000000        7.7988526581
H             7.5000000000        8.2696786293        7.2014964209
H             7.5000000000        6.7303213707        7.2014964209



     Writing config-only to output data dir ./H2O_vacuum.save/
     NEW-OLD atomic charge density approx. for the potential

     negative rho (up, down):  4.803E-04 0.000E+00

     add environment contribution to local potential

     total cpu time spent up to now is      129.6 secs

     Self-consistent Calculation

     iteration #  1     ecut=    30.00 Ry     beta= 0.40
     Davidson diagonalization with overlap
     ethr =  1.00E-06,  avg # of iterations =  2.0

     Threshold (ethr) on eigenvalues was too large:
     Diagonalizing with lowered threshold

     Davidson diagonalization with overlap
     ethr =  1.76E-08,  avg # of iterations =  2.0

     negative rho (up, down):  4.635E-04 0.000E+00

     add environment contribution to local potential

     total cpu time spent up to now is      136.4 secs

     total energy              =     -34.26831054 Ry
     estimated scf accuracy    <       0.00000113 Ry
     electrostatic embedding   =       0.00009797 Ry
     correction to one-el term =       0.01621670 Ry

     iteration #  2     ecut=    30.00 Ry     beta= 0.40
     Davidson diagonalization with overlap
     ethr =  1.42E-08,  avg # of iterations =  2.0

     negative rho (up, down):  4.573E-04 0.000E+00

     add environment contribution to local potential

     total cpu time spent up to now is      140.8 secs

     total energy              =     -34.26831077 Ry
     estimated scf accuracy    <       0.00000022 Ry
     electrostatic embedding   =       0.00009788 Ry
     correction to one-el term =       0.01621124 Ry

     iteration #  3     ecut=    30.00 Ry     beta= 0.40
     Davidson diagonalization with overlap
     ethr =  2.75E-09,  avg # of iterations =  1.0

     negative rho (up, down):  4.594E-04 0.000E+00

     add environment contribution to local potential

     total cpu time spent up to now is      144.6 secs

     total energy              =     -34.26831080 Ry
     estimated scf accuracy    <       0.00000007 Ry
     electrostatic embedding   =       0.00009775 Ry
     correction to one-el term =       0.01621133 Ry

     iteration #  4     ecut=    30.00 Ry     beta= 0.40
     Davidson diagonalization with overlap
     ethr =  8.83E-10,  avg # of iterations =  2.0

     negative rho (up, down):  4.577E-04 0.000E+00

     add environment contribution to local potential

     total cpu time spent up to now is      148.5 secs

     total energy              =     -34.26831080 Ry
     estimated scf accuracy    <       0.00000001 Ry
     electrostatic embedding   =       0.00009758 Ry
     correction to one-el term =       0.01621086 Ry

     iteration #  5     ecut=    30.00 Ry     beta= 0.40
     Davidson diagonalization with overlap
     ethr =  1.30E-10,  avg # of iterations =  2.0

     negative rho (up, down):  4.572E-04 0.000E+00

     add environment contribution to local potential

     total cpu time spent up to now is      152.3 secs

     total energy              =     -34.26831080 Ry
     estimated scf accuracy    <          1.4E-09 Ry
     electrostatic embedding   =       0.00009759 Ry
     correction to one-el term =       0.01621047 Ry

     iteration #  6     ecut=    30.00 Ry     beta= 0.40
     Davidson diagonalization with overlap
     ethr =  1.75E-11,  avg # of iterations =  2.0

     negative rho (up, down):  4.572E-04 0.000E+00

     add environment contribution to local potential

     total cpu time spent up to now is      157.1 secs

     total energy              =     -34.26831080 Ry
     estimated scf accuracy    <          6.9E-10 Ry
     electrostatic embedding   =       0.00009761 Ry
     correction to one-el term =       0.01621015 Ry

     iteration #  7     ecut=    30.00 Ry     beta= 0.40
     Davidson diagonalization with overlap
     ethr =  8.61E-12,  avg # of iterations =  1.0

     negative rho (up, down):  4.571E-04 0.000E+00

     add environment contribution to local potential

     total cpu time spent up to now is      161.8 secs

     total energy              =     -34.26831080 Ry
     estimated scf accuracy    <          2.0E-10 Ry
     electrostatic embedding   =       0.00009760 Ry
     correction to one-el term =       0.01621018 Ry

     iteration #  8     ecut=    30.00 Ry     beta= 0.40
     Davidson diagonalization with overlap
     ethr =  2.50E-12,  avg # of iterations =  2.0

     negative rho (up, down):  4.570E-04 0.000E+00

     the potential shift due to the Gaussian-smeared nuclei is    -0.0075 ev

     total cpu time spent up to now is      165.4 secs

     End of self-consistent calculation

          k = 0.0000 0.0000 0.0000 ( 63077 PWs)   bands (ev):

   -25.2774 -13.0989  -9.2409  -7.2143

     highest occupied level (ev):    -7.2143

!    total energy              =     -34.26831080 Ry
     estimated scf accuracy    <          1.6E-12 Ry

     The total energy is the sum of the following terms:
     one-electron contribution =     -69.25233965 Ry
     hartree contribution      =      36.04182472 Ry
     xc contribution           =      -8.39997492 Ry
     ewald contribution        =       7.32587119 Ry
     electrostatic embedding   =       0.00009760 Ry
     correction to one-el term =       0.01621024 Ry

     WARNING: you are using the parabolic pbc correction;
              the potential shift above must be added to 
              band and Fermi energies.

     convergence has been achieved in   8 iterations

     Forces acting on atoms (cartesian axes, Ry/au):

     atom    1 type  1   force =     0.00000000    0.00000000   -0.00047250
     atom    2 type  2   force =     0.00000000    0.00141506    0.00023625
     atom    3 type  2   force =     0.00000000   -0.00141506    0.00023625

     Total force =     0.002083     Total SCF correction =     0.000002


     Computing stress (Cartesian axis) and pressure

          total   stress  (Ry/bohr**3)                   (kbar)     P=       -0.12
  -0.00000095   0.00000000   0.00000000           -0.14        0.00        0.00
   0.00000000  -0.00000056   0.00000000            0.00       -0.08        0.00
   0.00000000   0.00000000  -0.00000086            0.00        0.00       -0.13

     Energy error            =      1.2E-05 Ry
     Gradient error          =      1.4E-03 Ry/Bohr

     number of scf cycles    =   4
     number of bfgs steps    =   3

     energy             old  =     -34.2682992558 Ry
     energy             new  =     -34.2683108044 Ry

     CASE: energy            _new < energy            _old

     new trust radius        =       0.0036591293 bohr
     new conv_thr            =            1.0E-10 Ry


ATOMIC_POSITIONS (angstrom)
O             7.5000000000        7.5000000000        7.7974262208
H             7.5000000000        8.2714788194        7.2022096396
H             7.5000000000        6.7285211806        7.2022096396



     Writing config-only to output data dir ./H2O_vacuum.save/
     NEW-OLD atomic charge density approx. for the potential

     negative rho (up, down):  4.958E-04 0.000E+00

     add environment contribution to local potential

     total cpu time spent up to now is      174.9 secs

     Self-consistent Calculation

     iteration #  1     ecut=    30.00 Ry     beta= 0.40
     Davidson diagonalization with overlap
     ethr =  1.00E-06,  avg # of iterations =  2.0

     Threshold (ethr) on eigenvalues was too large:
     Diagonalizing with lowered threshold

     Davidson diagonalization with overlap
     ethr =  1.24E-08,  avg # of iterations =  4.0

     negative rho (up, down):  4.684E-04 0.000E+00

     add environment contribution to local potential

     total cpu time spent up to now is      181.0 secs

     total energy              =     -34.26831692 Ry
     estimated scf accuracy    <       0.00000129 Ry
     electrostatic embedding   =       0.00009753 Ry
     correction to one-el term =       0.01621185 Ry

     iteration #  2     ecut=    30.00 Ry     beta= 0.40
     Davidson diagonalization with overlap
     ethr =  1.62E-08,  avg # of iterations =  1.0

     negative rho (up, down):  4.590E-04 0.000E+00

     add environment contribution to local potential

     total cpu time spent up to now is      185.7 secs

     total energy              =     -34.26831703 Ry
     estimated scf accuracy    <       0.00000034 Ry
     electrostatic embedding   =       0.00009735 Ry
     correction to one-el term =       0.01621158 Ry

     iteration #  3     ecut=    30.00 Ry     beta= 0.40
     Davidson diagonalization with overlap
     ethr =  4.22E-09,  avg # of iterations =  1.0

     negative rho (up, down):  4.591E-04 0.000E+00

     add environment contribution to local potential

     total cpu time spent up to now is      191.9 secs

     total energy              =     -34.26831707 Ry
     estimated scf accuracy    <       0.00000002 Ry
     electrostatic embedding   =       0.00009716 Ry
     correction to one-el term =       0.01620907 Ry

     iteration #  4     ecut=    30.00 Ry     beta= 0.40
     Davidson diagonalization with overlap
     ethr =  2.59E-10,  avg # of iterations =  2.0

     negative rho (up, down):  4.584E-04 0.000E+00

     add environment contribution to local potential

     total cpu time spent up to now is      197.2 secs

     total energy              =     -34.26831707 Ry
     estimated scf accuracy    <          1.3E-09 Ry
     electrostatic embedding   =       0.00009710 Ry
     correction to one-el term =       0.01620756 Ry

     iteration #  5     ecut=    30.00 Ry     beta= 0.40
     Davidson diagonalization with overlap
     ethr =  1.64E-11,  avg # of iterations =  2.0

     negative rho (up, down):  4.574E-04 0.000E+00

     add environment contribution to local potential

     total cpu time spent up to now is      202.4 secs

     total energy              =     -34.26831707 Ry
     estimated scf accuracy    <          1.1E-10 Ry
     electrostatic embedding   =       0.00009710 Ry
     correction to one-el term =       0.01620695 Ry

     iteration #  6     ecut=    30.00 Ry     beta= 0.40
     Davidson diagonalization with overlap
     ethr =  1.42E-12,  avg # of iterations =  2.0

     negative rho (up, down):  4.569E-04 0.000E+00

     the potential shift due to the Gaussian-smeared nuclei is    -0.0075 ev

     total cpu time spent up to now is      206.5 secs

     End of self-consistent calculation

          k = 0.0000 0.0000 0.0000 ( 63077 PWs)   bands (ev):

   -25.2696 -13.1135  -9.2245  -7.2123

     highest occupied level (ev):    -7.2123

!    total energy              =     -34.26831708 Ry
     estimated scf accuracy    <          8.3E-12 Ry

     The total energy is the sum of the following terms:
     one-electron contribution =     -69.24799689 Ry
     hartree contribution      =      36.04034531 Ry
     xc contribution           =      -8.39971720 Ry
     ewald contribution        =       7.32274761 Ry
     electrostatic embedding   =       0.00009710 Ry
     correction to one-el term =       0.01620699 Ry

     WARNING: you are using the parabolic pbc correction;
              the potential shift above must be added to 
              band and Fermi energies.

     convergence has been achieved in   6 iterations

     Forces acting on atoms (cartesian axes, Ry/au):

     atom    1 type  1   force =     0.00000000    0.00000000    0.00034199
     atom    2 type  2   force =     0.00000000    0.00034737   -0.00017099
     atom    3 type  2   force =     0.00000000   -0.00034737   -0.00017099

     Total force =     0.000646     Total SCF correction =     0.000006


     Computing stress (Cartesian axis) and pressure

          total   stress  (Ry/bohr**3)                   (kbar)     P=       -0.12
  -0.00000095   0.00000000   0.00000000           -0.14        0.00        0.00
   0.00000000  -0.00000069   0.00000000            0.00       -0.10        0.00
   0.00000000   0.00000000  -0.00000083            0.00        0.00       -0.12

     Energy error            =      6.3E-06 Ry
     Gradient error          =      3.5E-04 Ry/Bohr

     bfgs converged in   5 scf cycles and   4 bfgs steps
     (criteria: energy <  1.0E-04 Ry, force <  1.0E-03 Ry/Bohr)

     End of BFGS Geometry Optimization

     Final energy             =     -34.2683170788 Ry

     File ./H2O_vacuum.bfgs deleted, as requested
Begin final coordinates

ATOMIC_POSITIONS (angstrom)
O             7.5000000000        7.5000000000        7.7974262208
H             7.5000000000        8.2714788194        7.2022096396
H             7.5000000000        6.7285211806        7.2022096396
End final coordinates



     Writing all to output data dir ./H2O_vacuum.save/
 
     init_run     :      5.51s CPU      8.64s WALL (       1 calls)
     electrons    :    102.40s CPU    145.46s WALL (       5 calls)
     update_pot   :      5.16s CPU      8.00s WALL (       4 calls)
     forces       :      6.54s CPU     10.34s WALL (       5 calls)
     stress       :     16.52s CPU     30.76s WALL (       5 calls)

     Called by init_run:
     wfcinit      :      0.06s CPU      0.09s WALL (       1 calls)
     potinit      :      1.58s CPU      2.64s WALL (       1 calls)
     hinit0       :      0.92s CPU      1.26s WALL (       1 calls)

     Called by electrons:
     c_bands      :      6.11s CPU      8.58s WALL (      32 calls)
     sum_band     :     31.46s CPU     44.73s WALL (      32 calls)
     v_of_rho     :     31.57s CPU     43.63s WALL (      34 calls)
     newd         :     17.71s CPU     30.00s WALL (      34 calls)
     mix_rho      :      5.24s CPU      7.93s WALL (      32 calls)

     Called by c_bands:
     init_us_2    :      0.19s CPU      0.23s WALL (      64 calls)
     init_us_2:cp :      0.19s CPU      0.23s WALL (      64 calls)
     cegterg      :      5.72s CPU      7.85s WALL (      32 calls)

     Called by *egterg:
     cdiaghg      :      0.01s CPU      0.02s WALL (      84 calls)
     h_psi        :      5.06s CPU      6.83s WALL (      92 calls)
     s_psi        :      0.08s CPU      0.09s WALL (      92 calls)
     g_psi        :      0.02s CPU      0.02s WALL (      60 calls)

     Called by h_psi:
     h_psi:calbec :      0.13s CPU      0.14s WALL (      92 calls)
     vloc_psi     :      4.80s CPU      6.53s WALL (      92 calls)
     add_vuspsi   :      0.09s CPU      0.10s WALL (      92 calls)

     General routines
     calbec       :      0.24s CPU      0.29s WALL (     149 calls)
     fft          :     30.80s CPU     40.17s WALL (     479 calls)
     ffts         :      0.98s CPU      1.17s WALL (      66 calls)
     fftw         :      4.78s CPU      6.47s WALL (     802 calls)
     interpolate  :      2.89s CPU      3.60s WALL (      34 calls)
 
     Parallel routines
 
     Environ routines
 
     PWSCF        :   2m24.43s CPU   3m35.76s WALL

 
   This run was terminated on:   9:11:55   6Jun2023            

=------------------------------------------------------------------------------=
   JOB DONE.
=------------------------------------------------------------------------------=
