
     Program PWSCF v.7.1 starts on  6Jun2023 at  9:13:45 

     This program is part of the open-source Quantum ESPRESSO suite
     for quantum simulation of materials; please cite
         "P. Giannozzi et al., J. Phys.:Condens. Matter 21 395502 (2009);
         "P. Giannozzi et al., J. Phys.:Condens. Matter 29 465901 (2017);
         "P. Giannozzi et al., J. Chem. Phys. 152 154105 (2020);
          URL http://www.quantum-espresso.org", 
     in publications or presentations arising from this work. More details at
     http://www.quantum-espresso.org/quote

     Parallel version (MPI), running on     4 processors

     MPI processes distributed on     1 nodes
     0 MiB available memory on the printing compute node when the environment starts
 
     Reading input from espresso.pwi
Warning: card &CELL ignored
Warning: card / ignored

     Current dimensions of program PWSCF are:
     Max number of different atomic species (ntypx) = 10
     Max number of k-points (npk) =  40000
     Max angular momentum in pseudopotentials (lmaxx) =  4
 
     Reading input from environ.in:
     * setting up water environment
     * using electronic solvent mode
     * setting boundary derivatives method to SCCS default
     * ignoring &ELECTROSTATIC namelist
     
     file O.pbe-rrkjus.UPF: wavefunction(s)  2S renormalized
     file H.pbe-rrkjus.UPF: wavefunction(s)  1S renormalized
     Message from routine setup:
     using ibrav=0 with symmetry is DISCOURAGED, use correct ibrav instead
 
     R & G space division:  proc/nbgrp/npool/nimage =       4
     Subspace diagonalization in iterative solution of the eigenvalue problem:
     a serial algorithm will be used

 
     Parallelization info
     --------------------
     sticks:   dense  smooth     PW     G-vecs:    dense   smooth      PW
     Min        4797    1921    478               499673   126471   15769
     Max        4798    1922    481               499678   126473   15770
     Sum       19189    7685   1917              1998697   505887   63077
 
     Using Slab Decomposition
 


     bravais-lattice index     =            0
     lattice parameter (alat)  =      28.3459  a.u.
     unit-cell volume          =   22775.6289 (a.u.)^3
     number of atoms/cell      =            3
     number of atomic types    =            2
     number of electrons       =         8.00
     number of Kohn-Sham states=            4
     kinetic-energy cutoff     =      30.0000  Ry
     charge density cutoff     =     300.0000  Ry
     scf convergence threshold =      1.0E-06
     mixing beta               =       0.4000
     number of iterations used =            8  plain     mixing
     Exchange-correlation= SLA  PW   PBE  PBE
                           (   1   4   3   4   0   0   0)

     ================================================================================
 
                                  Environ Setup Summary

     ================================================================================
 
     Please cite

          O. Andreussi, I. Dabo and N. Marzari, J. Chem. Phys. 136, 064102 (2012)

     in publications or presentations arising from this work.

     ================================================================================
 
     Parameters
     ==========

     compensation onset threshold      =               0.1000E-01
     static permittivity               =                    78.30
     surface tension in input (dyn/cm) =                    47.90
     surface tension in internal units =               0.6153E-04
     external pressure in input (GPa)  =                    -0.36
     external pressure in inter. units =              -0.2447E-04

     Solvent Boundary
     ================

     solvent mode                      =               electronic
     derivatives method                =                    chain
     numerical core for derivatives    =                      fft
     switching function adopted        =                     SCCS
     density limit for vacuum region   =               0.5000E-02
     density limit for bulk solvent    =               0.1000E-03

     Electrostatic Setup
     ===================

     electrostatic problem to solve    =              generalized
     numerical solver adopted          =                       cg
     type of auxiliary density adopted =                     none
     numerical core for poisson        =                      fft

     ================================================================================
 

     celldm(1)=  28.345892  celldm(2)=   0.000000  celldm(3)=   0.000000
     celldm(4)=   0.000000  celldm(5)=   0.000000  celldm(6)=   0.000000

     crystal axes: (cart. coord. in units of alat)
               a(1) = (   1.000000   0.000000   0.000000 )  
               a(2) = (   0.000000   1.000000   0.000000 )  
               a(3) = (   0.000000   0.000000   1.000000 )  

     reciprocal axes: (cart. coord. in units 2 pi/alat)
               b(1) = (  1.000000  0.000000  0.000000 )  
               b(2) = (  0.000000  1.000000  0.000000 )  
               b(3) = (  0.000000  0.000000  1.000000 )  


     PseudoPot. # 1 for O  read from file:
     ../pseudos/O.pbe-rrkjus.UPF
     MD5 check sum: fadcf19ee70a498d3030e2e79cf929a4
     Pseudo is Ultrasoft, Zval =  6.0
     Generated by new atomic code, or converted to UPF format
     Using radial grid of 1269 points,  4 beta functions with: 
                l(1) =   0
                l(2) =   0
                l(3) =   1
                l(4) =   1
     Q(r) pseudized with 0 coefficients 


     PseudoPot. # 2 for H  read from file:
     ../pseudos/H.pbe-rrkjus.UPF
     MD5 check sum: 2d52a7f45632fd764c17cc6affed14c8
     Pseudo is Ultrasoft, Zval =  1.0
     Generated by new atomic code, or converted to UPF format
     Using radial grid of 1061 points,  2 beta functions with: 
                l(1) =   0
                l(2) =   0
     Q(r) pseudized with 0 coefficients 


     atomic species   valence    mass     pseudopotential
        O              6.00    15.99900     O ( 1.00)
        H              1.00     1.00800     H ( 1.00)

      4 Sym. Ops. (no inversion) found



   Cartesian axes

     site n.     atom                  positions (alat units)
         1           O   tau(   1) = (   0.5000000   0.5000000   0.5198770  )
         2           H   tau(   2) = (   0.5000000   0.5508826   0.4801230  )
         3           H   tau(   3) = (   0.5000000   0.4491174   0.4801230  )

     number of k points=     1
                       cart. coord. in units 2pi/alat
        k(    1) = (   0.0000000   0.0000000   0.0000000), wk =   2.0000000

     Dense  grid:  1998697 G-vectors     FFT dimensions: ( 160, 160, 160)

     Smooth grid:   505887 G-vectors     FFT dimensions: ( 100, 100, 100)

     Estimated max dynamical RAM per process >     676.36 MB

     Estimated total dynamical RAM >       2.64 GB

     Initial potential from superposition of free atoms

     starting charge       7.8076, renormalised to       8.0000

     negative rho (up, down):  1.656E-03 0.000E+00
     Starting wfcs are    6 randomized atomic wfcs

     total cpu time spent up to now is       16.2 secs

     Self-consistent Calculation

     iteration #  1     ecut=    30.00 Ry     beta= 0.40
     Davidson diagonalization with overlap
     ethr =  1.00E-02,  avg # of iterations =  2.0

     negative rho (up, down):  1.025E-03 0.000E+00

     total cpu time spent up to now is       21.5 secs

     total energy              =     -34.21624825 Ry
     estimated scf accuracy    <       0.69666619 Ry
     electrostatic embedding   =       0.00000000 Ry
     cavitation energy         =       0.01729375 Ry
     PV energy                 =      -0.01173417 Ry
     correction to one-el term =       0.00000000 Ry

     iteration #  2     ecut=    30.00 Ry     beta= 0.40
     Davidson diagonalization with overlap
     ethr =  8.71E-03,  avg # of iterations =  2.0

     negative rho (up, down):  8.791E-04 0.000E+00

     total cpu time spent up to now is       27.2 secs

     total energy              =     -34.27257690 Ry
     estimated scf accuracy    <       0.10060045 Ry
     electrostatic embedding   =       0.00000000 Ry
     cavitation energy         =       0.01315771 Ry
     PV energy                 =      -0.00748419 Ry
     correction to one-el term =       0.00000000 Ry

     iteration #  3     ecut=    30.00 Ry     beta= 0.40
     Davidson diagonalization with overlap
     ethr =  1.26E-03,  avg # of iterations =  1.0

     negative rho (up, down):  4.195E-03 0.000E+00

     total cpu time spent up to now is       32.8 secs

     total energy              =     -34.25990843 Ry
     estimated scf accuracy    <       0.02832980 Ry
     electrostatic embedding   =       0.00000000 Ry
     cavitation energy         =       0.01166610 Ry
     PV energy                 =      -0.00608829 Ry
     correction to one-el term =       0.00000000 Ry

     iteration #  4     ecut=    30.00 Ry     beta= 0.40
     Davidson diagonalization with overlap
     ethr =  3.54E-04,  avg # of iterations =  2.0

     negative rho (up, down):  2.147E-03 0.000E+00

     add environment contribution to local potential

     total cpu time spent up to now is       42.6 secs

     total energy              =     -34.26235214 Ry
     estimated scf accuracy    <       0.00116599 Ry
     electrostatic embedding   =       0.00000000 Ry
     cavitation energy         =       0.01105413 Ry
     PV energy                 =      -0.00556686 Ry
     correction to one-el term =       0.00000000 Ry

     iteration #  5     ecut=    30.00 Ry     beta= 0.40
     Davidson diagonalization with overlap
     ethr =  1.46E-05,  avg # of iterations =  4.0

     negative rho (up, down):  2.225E-03 0.000E+00

     add environment contribution to local potential

     total cpu time spent up to now is       52.8 secs

     total energy              =     -34.28973446 Ry
     estimated scf accuracy    <       0.00339869 Ry
     electrostatic embedding   =      -0.02114915 Ry
     cavitation energy         =       0.01108858 Ry
     PV energy                 =      -0.00559254 Ry
     correction to one-el term =      -0.07037474 Ry

     iteration #  6     ecut=    30.00 Ry     beta= 0.40
     Davidson diagonalization with overlap
     ethr =  1.46E-05,  avg # of iterations =  1.0

     negative rho (up, down):  2.558E-03 0.000E+00

     add environment contribution to local potential

     total cpu time spent up to now is       65.5 secs

     total energy              =     -34.28844766 Ry
     estimated scf accuracy    <       0.00486185 Ry
     electrostatic embedding   =      -0.02025273 Ry
     cavitation energy         =       0.01108500 Ry
     PV energy                 =      -0.00558904 Ry
     correction to one-el term =      -0.07103819 Ry

     iteration #  7     ecut=    30.00 Ry     beta= 0.40
     Davidson diagonalization with overlap
     ethr =  1.46E-05,  avg # of iterations =  1.0

     negative rho (up, down):  2.343E-03 0.000E+00

     add environment contribution to local potential

     total cpu time spent up to now is       79.5 secs

     total energy              =     -34.28872842 Ry
     estimated scf accuracy    <       0.00320740 Ry
     electrostatic embedding   =      -0.02440499 Ry
     cavitation energy         =       0.01110943 Ry
     PV energy                 =      -0.00561274 Ry
     correction to one-el term =      -0.05723540 Ry

     iteration #  8     ecut=    30.00 Ry     beta= 0.40
     Davidson diagonalization with overlap
     ethr =  1.46E-05,  avg # of iterations =  1.0

     negative rho (up, down):  2.243E-03 0.000E+00

     add environment contribution to local potential

     total cpu time spent up to now is       94.4 secs

     total energy              =     -34.28963183 Ry
     estimated scf accuracy    <       0.00113900 Ry
     electrostatic embedding   =      -0.02800362 Ry
     cavitation energy         =       0.01108552 Ry
     PV energy                 =      -0.00559861 Ry
     correction to one-el term =      -0.06170946 Ry

     iteration #  9     ecut=    30.00 Ry     beta= 0.40
     Davidson diagonalization with overlap
     ethr =  1.42E-05,  avg # of iterations =  1.0

     negative rho (up, down):  2.127E-03 0.000E+00

     add environment contribution to local potential

     total cpu time spent up to now is      109.4 secs

     total energy              =     -34.28935091 Ry
     estimated scf accuracy    <       0.00127983 Ry
     electrostatic embedding   =      -0.02733051 Ry
     cavitation energy         =       0.01108859 Ry
     PV energy                 =      -0.00560007 Ry
     correction to one-el term =      -0.05893649 Ry

     iteration # 10     ecut=    30.00 Ry     beta= 0.40
     Davidson diagonalization with overlap
     ethr =  1.42E-05,  avg # of iterations =  1.0

     negative rho (up, down):  1.638E-03 0.000E+00

     add environment contribution to local potential

     total cpu time spent up to now is      122.7 secs

     total energy              =     -34.28912277 Ry
     estimated scf accuracy    <       0.00088410 Ry
     electrostatic embedding   =      -0.02844385 Ry
     cavitation energy         =       0.01107985 Ry
     PV energy                 =      -0.00559478 Ry
     correction to one-el term =      -0.06106508 Ry

     iteration # 11     ecut=    30.00 Ry     beta= 0.40
     Davidson diagonalization with overlap
     ethr =  1.11E-05,  avg # of iterations =  2.0

     negative rho (up, down):  1.113E-03 0.000E+00

     add environment contribution to local potential

     total cpu time spent up to now is      141.6 secs

     total energy              =     -34.28947799 Ry
     estimated scf accuracy    <       0.00009400 Ry
     electrostatic embedding   =      -0.03238860 Ry
     cavitation energy         =       0.01105647 Ry
     PV energy                 =      -0.00558161 Ry
     correction to one-el term =      -0.07265954 Ry

     iteration # 12     ecut=    30.00 Ry     beta= 0.40
     Davidson diagonalization with overlap
     ethr =  1.18E-06,  avg # of iterations =  2.0

     negative rho (up, down):  8.140E-04 0.000E+00

     add environment contribution to local potential

     total cpu time spent up to now is      155.7 secs

     total energy              =     -34.28958171 Ry
     estimated scf accuracy    <       0.00002407 Ry
     electrostatic embedding   =      -0.03510969 Ry
     cavitation energy         =       0.01104516 Ry
     PV energy                 =      -0.00557543 Ry
     correction to one-el term =      -0.08096862 Ry

     iteration # 13     ecut=    30.00 Ry     beta= 0.40
     Davidson diagonalization with overlap
     ethr =  3.01E-07,  avg # of iterations =  2.0

     negative rho (up, down):  4.994E-04 0.000E+00

     add environment contribution to local potential

     total cpu time spent up to now is      169.5 secs

     total energy              =     -34.28951623 Ry
     estimated scf accuracy    <       0.00009498 Ry
     electrostatic embedding   =      -0.03612369 Ry
     cavitation energy         =       0.01103669 Ry
     PV energy                 =      -0.00556995 Ry
     correction to one-el term =      -0.08423816 Ry

     iteration # 14     ecut=    30.00 Ry     beta= 0.40
     Davidson diagonalization with overlap
     ethr =  3.01E-07,  avg # of iterations =  2.0

     negative rho (up, down):  4.655E-04 0.000E+00

     add environment contribution to local potential

     total cpu time spent up to now is      182.1 secs

     total energy              =     -34.28955230 Ry
     estimated scf accuracy    <       0.00001784 Ry
     electrostatic embedding   =      -0.03462337 Ry
     cavitation energy         =       0.01106155 Ry
     PV energy                 =      -0.00558712 Ry
     correction to one-el term =      -0.08038164 Ry

     iteration # 15     ecut=    30.00 Ry     beta= 0.40
     Davidson diagonalization with overlap
     ethr =  2.23E-07,  avg # of iterations =  1.0

     negative rho (up, down):  4.670E-04 0.000E+00

     add environment contribution to local potential

     total cpu time spent up to now is      194.4 secs

     total energy              =     -34.28955238 Ry
     estimated scf accuracy    <       0.00000900 Ry
     electrostatic embedding   =      -0.03444585 Ry
     cavitation energy         =       0.01106743 Ry
     PV energy                 =      -0.00559132 Ry
     correction to one-el term =      -0.08019479 Ry

     iteration # 16     ecut=    30.00 Ry     beta= 0.40
     Davidson diagonalization with overlap
     ethr =  1.13E-07,  avg # of iterations =  1.0

     negative rho (up, down):  4.646E-04 0.000E+00

     add environment contribution to local potential

     total cpu time spent up to now is      206.9 secs

     total energy              =     -34.28955082 Ry
     estimated scf accuracy    <       0.00000549 Ry
     electrostatic embedding   =      -0.03435754 Ry
     cavitation energy         =       0.01106946 Ry
     PV energy                 =      -0.00559275 Ry
     correction to one-el term =      -0.08007127 Ry

     iteration # 17     ecut=    30.00 Ry     beta= 0.40
     Davidson diagonalization with overlap
     ethr =  6.86E-08,  avg # of iterations =  1.0

     negative rho (up, down):  4.595E-04 0.000E+00

     add environment contribution to local potential

     total cpu time spent up to now is      219.2 secs

     total energy              =     -34.28955116 Ry
     estimated scf accuracy    <       0.00000109 Ry
     electrostatic embedding   =      -0.03426418 Ry
     cavitation energy         =       0.01107319 Ry
     PV energy                 =      -0.00559557 Ry
     correction to one-el term =      -0.08045265 Ry

     iteration # 18     ecut=    30.00 Ry     beta= 0.40
     Davidson diagonalization with overlap
     ethr =  1.36E-08,  avg # of iterations =  1.0

     negative rho (up, down):  4.610E-04 0.000E+00

     add environment contribution to local potential

     total cpu time spent up to now is      231.5 secs

     total energy              =     -34.28955146 Ry
     estimated scf accuracy    <       0.00000108 Ry
     electrostatic embedding   =      -0.03431428 Ry
     cavitation energy         =       0.01107209 Ry
     PV energy                 =      -0.00559487 Ry
     correction to one-el term =      -0.08068899 Ry

     iteration # 19     ecut=    30.00 Ry     beta= 0.40
     Davidson diagonalization with overlap
     ethr =  1.36E-08,  avg # of iterations =  1.0

     negative rho (up, down):  4.585E-04 0.000E+00

     the potential shift due to the Gaussian-smeared nuclei is    -0.0075 ev

     total cpu time spent up to now is      237.6 secs

     End of self-consistent calculation

          k = 0.0000 0.0000 0.0000 ( 63077 PWs)   bands (ev):

   -24.8344 -12.5204  -8.9415  -6.9380

     highest occupied level (ev):    -6.9380

!    total energy              =     -34.28955137 Ry
     estimated scf accuracy    <       0.00000054 Ry

     The total energy is the sum of the following terms:
     one-electron contribution =     -69.41843065 Ry
     hartree contribution      =      36.25874950 Ry
     xc contribution           =      -8.42880610 Ry
     ewald contribution        =       7.40859792 Ry
     electrostatic embedding   =      -0.03433739 Ry
     cavitation energy         =       0.01107095 Ry
     PV energy                 =      -0.00559413 Ry
     correction to one-el term =      -0.08080148 Ry

     convergence has been achieved in  19 iterations

     Forces acting on atoms (cartesian axes, Ry/au):

     atom    1 type  1   force =     0.00000000    0.00000000    0.01442359
     atom    2 type  2   force =     0.00000000    0.01507694   -0.00721180
     atom    3 type  2   force =     0.00000000   -0.01507694   -0.00721180

     Total force =     0.027689     Total SCF correction =     0.000554


     Computing stress (Cartesian axis) and pressure

          total   stress  (Ry/bohr**3)                   (kbar)     P=       -0.03
  -0.00000400   0.00000000   0.00000000           -0.59        0.00        0.00
   0.00000000   0.00000437   0.00000000            0.00        0.64        0.00
   0.00000000   0.00000000  -0.00000108            0.00        0.00       -0.16


     Writing all to output data dir ./H2O_water.save/
 
     init_run     :      7.09s CPU     15.22s WALL (       1 calls)
     electrons    :    162.80s CPU    221.54s WALL (       1 calls)
     forces       :      1.29s CPU      2.08s WALL (       1 calls)
     stress       :      3.34s CPU      5.02s WALL (       1 calls)

     Called by init_run:
     wfcinit      :      0.09s CPU      0.11s WALL (       1 calls)
     potinit      :      3.16s CPU      6.95s WALL (       1 calls)
     hinit0       :      0.83s CPU      1.47s WALL (       1 calls)

     Called by electrons:
     c_bands      :      3.18s CPU      3.91s WALL (      19 calls)
     sum_band     :     18.61s CPU     26.21s WALL (      19 calls)
     v_of_rho     :     18.40s CPU     24.87s WALL (      20 calls)
     newd         :     10.55s CPU     19.09s WALL (      20 calls)
     mix_rho      :      4.75s CPU      7.12s WALL (      19 calls)

     Called by c_bands:
     init_us_2    :      0.12s CPU      0.15s WALL (      39 calls)
     init_us_2:cp :      0.12s CPU      0.15s WALL (      39 calls)
     cegterg      :      2.97s CPU      3.59s WALL (      19 calls)

     Called by *egterg:
     cdiaghg      :      0.00s CPU      0.01s WALL (      48 calls)
     h_psi        :      2.76s CPU      3.31s WALL (      49 calls)
     s_psi        :      0.04s CPU      0.05s WALL (      49 calls)
     g_psi        :      0.01s CPU      0.01s WALL (      29 calls)

     Called by h_psi:
     h_psi:calbec :      0.06s CPU      0.06s WALL (      49 calls)
     vloc_psi     :      2.64s CPU      3.16s WALL (      49 calls)
     add_vuspsi   :      0.05s CPU      0.06s WALL (      49 calls)

     General routines
     calbec       :      0.10s CPU      0.11s WALL (      73 calls)
     fft          :     17.12s CPU     21.99s WALL (     266 calls)
     ffts         :      0.59s CPU      0.74s WALL (      39 calls)
     fftw         :      2.64s CPU      3.24s WALL (     452 calls)
     interpolate  :      1.69s CPU      2.17s WALL (      20 calls)
 
     Parallel routines
 
     Environ routines
 
     PWSCF        :   2m55.51s CPU   4m 5.50s WALL

 
   This run was terminated on:   9:17:51   6Jun2023            

=------------------------------------------------------------------------------=
   JOB DONE.
=------------------------------------------------------------------------------=
