
     Program PWSCF v.7.1 starts on  5Jun2023 at 14:58:17 

     This program is part of the open-source Quantum ESPRESSO suite
     for quantum simulation of materials; please cite
         "P. Giannozzi et al., J. Phys.:Condens. Matter 21 395502 (2009);
         "P. Giannozzi et al., J. Phys.:Condens. Matter 29 465901 (2017);
         "P. Giannozzi et al., J. Chem. Phys. 152 154105 (2020);
          URL http://www.quantum-espresso.org", 
     in publications or presentations arising from this work. More details at
     http://www.quantum-espresso.org/quote

     Parallel version (MPI), running on     4 processors

     MPI processes distributed on     1 nodes
     0 MiB available memory on the printing compute node when the environment starts
 
     Reading input from espresso.pwi
Warning: card &CELL ignored
Warning: card / ignored

     Current dimensions of program PWSCF are:
     Max number of different atomic species (ntypx) = 10
     Max number of k-points (npk) =  40000
     Max angular momentum in pseudopotentials (lmaxx) =  4
 
     Reading input from environ.in:
     * setting up water environment
     * using electronic solvent mode
     * setting boundary derivatives method to SCCS default
     * ignoring &ELECTROSTATIC namelist
     
     file O.pbe-rrkjus.UPF: wavefunction(s)  2S renormalized
     file H.pbe-rrkjus.UPF: wavefunction(s)  1S renormalized
     Message from routine setup:
     using ibrav=0 with symmetry is DISCOURAGED, use correct ibrav instead
 
     R & G space division:  proc/nbgrp/npool/nimage =       4
     Subspace diagonalization in iterative solution of the eigenvalue problem:
     a serial algorithm will be used

 
     Parallelization info
     --------------------
     sticks:   dense  smooth     PW     G-vecs:    dense   smooth      PW
     Min        8526    3409    848              1184522   299621   37444
     Max        8528    3410    850              1184524   299624   37446
     Sum       34109   13637   3397              4738093  1198487  149781
 
     Using Slab Decomposition
 


     bravais-lattice index     =            0
     lattice parameter (alat)  =      37.7945  a.u.
     unit-cell volume          =   53986.6760 (a.u.)^3
     number of atoms/cell      =            3
     number of atomic types    =            2
     number of electrons       =         8.00
     number of Kohn-Sham states=            4
     kinetic-energy cutoff     =      30.0000  Ry
     charge density cutoff     =     300.0000  Ry
     scf convergence threshold =      1.0E-06
     mixing beta               =       0.4000
     number of iterations used =            8  plain     mixing
     Exchange-correlation= SLA  PW   PBE  PBE
                           (   1   4   3   4   0   0   0)

     ================================================================================
 
                                  Environ Setup Summary

     ================================================================================
 
     Please cite

          O. Andreussi, I. Dabo and N. Marzari, J. Chem. Phys. 136, 064102 (2012)

     in publications or presentations arising from this work.

     ================================================================================
 
     Parameters
     ==========

     compensation onset threshold      =               0.1000E-01
     static permittivity               =                    78.30
     surface tension in input (dyn/cm) =                    47.90
     surface tension in internal units =               0.6153E-04
     external pressure in input (GPa)  =                    -0.36
     external pressure in inter. units =              -0.2447E-04

     Solvent Boundary
     ================

     solvent mode                      =               electronic
     derivatives method                =                    chain
     numerical core for derivatives    =                      fft
     switching function adopted        =                     SCCS
     density limit for vacuum region   =               0.5000E-02
     density limit for bulk solvent    =               0.1000E-03

     Electrostatic Setup
     ===================

     electrostatic problem to solve    =              generalized
     numerical solver adopted          =                       cg
     type of auxiliary density adopted =                     none
     numerical core for poisson        =                      fft

     ================================================================================
 

     celldm(1)=  37.794522  celldm(2)=   0.000000  celldm(3)=   0.000000
     celldm(4)=   0.000000  celldm(5)=   0.000000  celldm(6)=   0.000000

     crystal axes: (cart. coord. in units of alat)
               a(1) = (   1.000000   0.000000   0.000000 )  
               a(2) = (   0.000000   1.000000   0.000000 )  
               a(3) = (   0.000000   0.000000   1.000000 )  

     reciprocal axes: (cart. coord. in units 2 pi/alat)
               b(1) = (  1.000000  0.000000  0.000000 )  
               b(2) = (  0.000000  1.000000  0.000000 )  
               b(3) = (  0.000000  0.000000  1.000000 )  


     PseudoPot. # 1 for O  read from file:
     ../pseudos/O.pbe-rrkjus.UPF
     MD5 check sum: fadcf19ee70a498d3030e2e79cf929a4
     Pseudo is Ultrasoft, Zval =  6.0
     Generated by new atomic code, or converted to UPF format
     Using radial grid of 1269 points,  4 beta functions with: 
                l(1) =   0
                l(2) =   0
                l(3) =   1
                l(4) =   1
     Q(r) pseudized with 0 coefficients 


     PseudoPot. # 2 for H  read from file:
     ../pseudos/H.pbe-rrkjus.UPF
     MD5 check sum: 2d52a7f45632fd764c17cc6affed14c8
     Pseudo is Ultrasoft, Zval =  1.0
     Generated by new atomic code, or converted to UPF format
     Using radial grid of 1061 points,  2 beta functions with: 
                l(1) =   0
                l(2) =   0
     Q(r) pseudized with 0 coefficients 


     atomic species   valence    mass     pseudopotential
        O              6.00    15.99900     O ( 1.00)
        H              1.00     1.00800     H ( 1.00)

      4 Sym. Ops. (no inversion) found



   Cartesian axes

     site n.     atom                  positions (alat units)
         1           O   tau(   1) = (   0.5000000   0.5000000   0.5149077  )
         2           H   tau(   2) = (   0.5000000   0.5381620   0.4850923  )
         3           H   tau(   3) = (   0.5000000   0.4618380   0.4850923  )

     number of k points=     1
                       cart. coord. in units 2pi/alat
        k(    1) = (   0.0000000   0.0000000   0.0000000), wk =   2.0000000

     Dense  grid:  4738093 G-vectors     FFT dimensions: ( 216, 216, 216)

     Smooth grid:  1198487 G-vectors     FFT dimensions: ( 135, 135, 135)

     Estimated max dynamical RAM per process >       1.57 GB

     Estimated total dynamical RAM >       6.28 GB

     Initial potential from superposition of free atoms

     starting charge       7.8076, renormalised to       8.0000

     negative rho (up, down):  2.238E-03 0.000E+00
     Starting wfcs are    6 randomized atomic wfcs

     total cpu time spent up to now is       26.6 secs

     Self-consistent Calculation

     iteration #  1     ecut=    30.00 Ry     beta= 0.40
     Davidson diagonalization with overlap
     ethr =  1.00E-02,  avg # of iterations =  2.0

     negative rho (up, down):  1.418E-03 0.000E+00

     total cpu time spent up to now is       49.4 secs

     total energy              =     -34.21631544 Ry
     estimated scf accuracy    <       0.69652126 Ry
     electrostatic embedding   =       0.00000000 Ry
     cavitation energy         =       0.01729354 Ry
     PV energy                 =      -0.01173417 Ry
     correction to one-el term =       0.00000000 Ry

     iteration #  2     ecut=    30.00 Ry     beta= 0.40
     Davidson diagonalization with overlap
     ethr =  8.71E-03,  avg # of iterations =  2.0

     negative rho (up, down):  1.358E-03 0.000E+00

     total cpu time spent up to now is       67.9 secs

     total energy              =     -34.27254505 Ry
     estimated scf accuracy    <       0.10063408 Ry
     electrostatic embedding   =       0.00000000 Ry
     cavitation energy         =       0.01315791 Ry
     PV energy                 =      -0.00748441 Ry
     correction to one-el term =       0.00000000 Ry

     iteration #  3     ecut=    30.00 Ry     beta= 0.40
     Davidson diagonalization with overlap
     ethr =  1.26E-03,  avg # of iterations =  1.0

     negative rho (up, down):  7.148E-03 0.000E+00

     total cpu time spent up to now is       87.5 secs

     total energy              =     -34.25988017 Ry
     estimated scf accuracy    <       0.02833307 Ry
     electrostatic embedding   =       0.00000000 Ry
     cavitation energy         =       0.01166587 Ry
     PV energy                 =      -0.00608813 Ry
     correction to one-el term =       0.00000000 Ry

     iteration #  4     ecut=    30.00 Ry     beta= 0.40
     Davidson diagonalization with overlap
     ethr =  3.54E-04,  avg # of iterations =  2.0

     negative rho (up, down):  3.652E-03 0.000E+00

     add environment contribution to local potential

     total cpu time spent up to now is      122.2 secs

     total energy              =     -34.26232213 Ry
     estimated scf accuracy    <       0.00116646 Ry
     electrostatic embedding   =       0.00000000 Ry
     cavitation energy         =       0.01105418 Ry
     PV energy                 =      -0.00556705 Ry
     correction to one-el term =       0.00000000 Ry

     iteration #  5     ecut=    30.00 Ry     beta= 0.40
     Davidson diagonalization with overlap
     ethr =  1.46E-05,  avg # of iterations =  4.0

     negative rho (up, down):  3.823E-03 0.000E+00

     add environment contribution to local potential

     total cpu time spent up to now is      165.1 secs

     total energy              =     -34.28977238 Ry
     estimated scf accuracy    <       0.00342460 Ry
     electrostatic embedding   =      -0.02118687 Ry
     cavitation energy         =       0.01108851 Ry
     PV energy                 =      -0.00559254 Ry
     correction to one-el term =      -0.07117855 Ry

     iteration #  6     ecut=    30.00 Ry     beta= 0.40
     Davidson diagonalization with overlap
     ethr =  1.46E-05,  avg # of iterations =  1.0

     negative rho (up, down):  4.158E-03 0.000E+00

     add environment contribution to local potential

     total cpu time spent up to now is      200.4 secs

     total energy              =     -34.28847036 Ry
     estimated scf accuracy    <       0.00489848 Ry
     electrostatic embedding   =      -0.02028432 Ry
     cavitation energy         =       0.01108489 Ry
     PV energy                 =      -0.00558903 Ry
     correction to one-el term =      -0.07185728 Ry

     iteration #  7     ecut=    30.00 Ry     beta= 0.40
     Davidson diagonalization with overlap
     ethr =  1.46E-05,  avg # of iterations =  1.0

     negative rho (up, down):  3.685E-03 0.000E+00

     add environment contribution to local potential

     total cpu time spent up to now is      240.7 secs

     total energy              =     -34.28875637 Ry
     estimated scf accuracy    <       0.00323262 Ry
     electrostatic embedding   =      -0.02445232 Ry
     cavitation energy         =       0.01110977 Ry
     PV energy                 =      -0.00561301 Ry
     correction to one-el term =      -0.05771025 Ry

     iteration #  8     ecut=    30.00 Ry     beta= 0.40
     Davidson diagonalization with overlap
     ethr =  1.46E-05,  avg # of iterations =  1.0

     negative rho (up, down):  3.493E-03 0.000E+00

     add environment contribution to local potential

     total cpu time spent up to now is      274.1 secs

     total energy              =     -34.28965902 Ry
     estimated scf accuracy    <       0.00115054 Ry
     electrostatic embedding   =      -0.02805203 Ry
     cavitation energy         =       0.01108586 Ry
     PV energy                 =      -0.00559888 Ry
     correction to one-el term =      -0.06209226 Ry

     iteration #  9     ecut=    30.00 Ry     beta= 0.40
     Davidson diagonalization with overlap
     ethr =  1.44E-05,  avg # of iterations =  1.0

     negative rho (up, down):  3.282E-03 0.000E+00

     add environment contribution to local potential

     total cpu time spent up to now is      305.3 secs

     total energy              =     -34.28937304 Ry
     estimated scf accuracy    <       0.00129609 Ry
     electrostatic embedding   =      -0.02736831 Ry
     cavitation energy         =       0.01108899 Ry
     PV energy                 =      -0.00560039 Ry
     correction to one-el term =      -0.05926393 Ry

     iteration # 10     ecut=    30.00 Ry     beta= 0.40
     Davidson diagonalization with overlap
     ethr =  1.44E-05,  avg # of iterations =  1.0

     negative rho (up, down):  2.553E-03 0.000E+00

     add environment contribution to local potential

     total cpu time spent up to now is      347.2 secs

     total energy              =     -34.28914223 Ry
     estimated scf accuracy    <       0.00089048 Ry
     electrostatic embedding   =      -0.02850184 Ry
     cavitation energy         =       0.01108014 Ry
     PV energy                 =      -0.00559502 Ry
     correction to one-el term =      -0.06144256 Ry

     iteration # 11     ecut=    30.00 Ry     beta= 0.40
     Davidson diagonalization with overlap
     ethr =  1.11E-05,  avg # of iterations =  2.0

     negative rho (up, down):  1.728E-03 0.000E+00

     add environment contribution to local potential

     total cpu time spent up to now is      378.2 secs

     total energy              =     -34.28950204 Ry
     estimated scf accuracy    <       0.00009500 Ry
     electrostatic embedding   =      -0.03246124 Ry
     cavitation energy         =       0.01105678 Ry
     PV energy                 =      -0.00558178 Ry
     correction to one-el term =      -0.07315839 Ry

     iteration # 12     ecut=    30.00 Ry     beta= 0.40
     Davidson diagonalization with overlap
     ethr =  1.19E-06,  avg # of iterations =  2.0

     negative rho (up, down):  1.268E-03 0.000E+00

     add environment contribution to local potential

     total cpu time spent up to now is      411.1 secs

     total energy              =     -34.28960692 Ry
     estimated scf accuracy    <       0.00002255 Ry
     electrostatic embedding   =      -0.03517321 Ry
     cavitation energy         =       0.01104567 Ry
     PV energy                 =      -0.00557572 Ry
     correction to one-el term =      -0.08138100 Ry

     iteration # 13     ecut=    30.00 Ry     beta= 0.40
     Davidson diagonalization with overlap
     ethr =  2.82E-07,  avg # of iterations =  2.0

     negative rho (up, down):  7.975E-04 0.000E+00

     add environment contribution to local potential

     total cpu time spent up to now is      447.2 secs

     total energy              =     -34.28953774 Ry
     estimated scf accuracy    <       0.00009415 Ry
     electrostatic embedding   =      -0.03621025 Ry
     cavitation energy         =       0.01103713 Ry
     PV energy                 =      -0.00557018 Ry
     correction to one-el term =      -0.08468373 Ry

     iteration # 14     ecut=    30.00 Ry     beta= 0.40
     Davidson diagonalization with overlap
     ethr =  2.82E-07,  avg # of iterations =  2.0

     negative rho (up, down):  7.424E-04 0.000E+00

     add environment contribution to local potential

     total cpu time spent up to now is      479.4 secs

     total energy              =     -34.28957722 Ry
     estimated scf accuracy    <       0.00001759 Ry
     electrostatic embedding   =      -0.03471967 Ry
     cavitation energy         =       0.01106172 Ry
     PV energy                 =      -0.00558719 Ry
     correction to one-el term =      -0.08090867 Ry

     iteration # 15     ecut=    30.00 Ry     beta= 0.40
     Davidson diagonalization with overlap
     ethr =  2.20E-07,  avg # of iterations =  1.0

     negative rho (up, down):  7.421E-04 0.000E+00

     add environment contribution to local potential

     total cpu time spent up to now is      507.9 secs

     total energy              =     -34.28957719 Ry
     estimated scf accuracy    <       0.00000874 Ry
     electrostatic embedding   =      -0.03453747 Ry
     cavitation energy         =       0.01106786 Ry
     PV energy                 =      -0.00559158 Ry
     correction to one-el term =      -0.08071511 Ry

     iteration # 16     ecut=    30.00 Ry     beta= 0.40
     Davidson diagonalization with overlap
     ethr =  1.09E-07,  avg # of iterations =  1.0

     negative rho (up, down):  7.411E-04 0.000E+00

     add environment contribution to local potential

     total cpu time spent up to now is      548.6 secs

     total energy              =     -34.28957559 Ry
     estimated scf accuracy    <       0.00000530 Ry
     electrostatic embedding   =      -0.03444858 Ry
     cavitation energy         =       0.01106997 Ry
     PV energy                 =      -0.00559307 Ry
     correction to one-el term =      -0.08058973 Ry

     iteration # 17     ecut=    30.00 Ry     beta= 0.40
     Davidson diagonalization with overlap
     ethr =  6.63E-08,  avg # of iterations =  1.0

     negative rho (up, down):  7.348E-04 0.000E+00

     add environment contribution to local potential

     total cpu time spent up to now is      591.1 secs

     total energy              =     -34.28957602 Ry
     estimated scf accuracy    <       0.00000106 Ry
     electrostatic embedding   =      -0.03435944 Ry
     cavitation energy         =       0.01107357 Ry
     PV energy                 =      -0.00559579 Ry
     correction to one-el term =      -0.08098841 Ry

     iteration # 18     ecut=    30.00 Ry     beta= 0.40
     Davidson diagonalization with overlap
     ethr =  1.32E-08,  avg # of iterations =  1.0

     negative rho (up, down):  7.357E-04 0.000E+00

     add environment contribution to local potential

     total cpu time spent up to now is      620.9 secs

     total energy              =     -34.28957647 Ry
     estimated scf accuracy    <       0.00000106 Ry
     electrostatic embedding   =      -0.03441028 Ry
     cavitation energy         =       0.01107240 Ry
     PV energy                 =      -0.00559504 Ry
     correction to one-el term =      -0.08123022 Ry

     iteration # 19     ecut=    30.00 Ry     beta= 0.40
     Davidson diagonalization with overlap
     ethr =  1.32E-08,  avg # of iterations =  1.0

     negative rho (up, down):  7.326E-04 0.000E+00

     the potential shift due to the Gaussian-smeared nuclei is    -0.0032 ev

     total cpu time spent up to now is      636.7 secs

     End of self-consistent calculation

          k = 0.0000 0.0000 0.0000 (149781 PWs)   bands (ev):

   -24.8532 -12.5394  -8.9605  -6.9570

     highest occupied level (ev):    -6.9570

!    total energy              =     -34.28957657 Ry
     estimated scf accuracy    <       0.00000055 Ry

     The total energy is the sum of the following terms:
     one-electron contribution =     -72.59874597 Ry
     hartree contribution      =      37.84332786 Ry
     xc contribution           =      -8.42881159 Ry
     ewald contribution        =       9.00495571 Ry
     electrostatic embedding   =      -0.03443487 Ry
     cavitation energy         =       0.01107116 Ry
     PV energy                 =      -0.00559422 Ry
     correction to one-el term =      -0.08134464 Ry

     convergence has been achieved in  19 iterations

     Forces acting on atoms (cartesian axes, Ry/au):

     atom    1 type  1   force =     0.00000000    0.00000000    0.01446535
     atom    2 type  2   force =     0.00000000    0.01508736   -0.00723267
     atom    3 type  2   force =     0.00000000   -0.01508736   -0.00723267

     Total force =     0.027733     Total SCF correction =     0.000571


     Computing stress (Cartesian axis) and pressure

          total   stress  (Ry/bohr**3)                   (kbar)     P=       -0.01
  -0.00000169   0.00000000   0.00000000           -0.25        0.00        0.00
   0.00000000   0.00000184   0.00000000            0.00        0.27        0.00
   0.00000000   0.00000000  -0.00000045            0.00        0.00       -0.07


     Writing all to output data dir ./H2O_water.save/
 
     init_run     :     15.88s CPU     25.77s WALL (       1 calls)
     electrons    :    393.44s CPU    610.53s WALL (       1 calls)
     forces       :      2.55s CPU      4.14s WALL (       1 calls)
     stress       :      6.98s CPU     14.10s WALL (       1 calls)

     Called by init_run:
     wfcinit      :      0.32s CPU      0.41s WALL (       1 calls)
     potinit      :      7.33s CPU     10.74s WALL (       1 calls)
     hinit0       :      1.43s CPU      1.96s WALL (       1 calls)

     Called by electrons:
     c_bands      :     14.20s CPU     18.03s WALL (      19 calls)
     sum_band     :     45.14s CPU     76.24s WALL (      19 calls)
     v_of_rho     :     45.33s CPU     65.84s WALL (      20 calls)
     newd         :     24.63s CPU     77.97s WALL (      20 calls)
     mix_rho      :     11.39s CPU     26.51s WALL (      19 calls)

     Called by c_bands:
     init_us_2    :      0.28s CPU      0.45s WALL (      39 calls)
     init_us_2:cp :      0.28s CPU      0.45s WALL (      39 calls)
     cegterg      :      9.68s CPU     13.14s WALL (      19 calls)

     Called by *egterg:
     cdiaghg      :      0.01s CPU      0.08s WALL (      48 calls)
     h_psi        :      8.54s CPU     11.27s WALL (      49 calls)
     s_psi        :      0.12s CPU      0.15s WALL (      49 calls)
     g_psi        :      0.03s CPU      0.03s WALL (      29 calls)

     Called by h_psi:
     h_psi:calbec :      0.19s CPU      0.28s WALL (      49 calls)
     vloc_psi     :      8.17s CPU     10.71s WALL (      49 calls)
     add_vuspsi   :      0.13s CPU      0.16s WALL (      49 calls)

     General routines
     calbec       :      0.27s CPU      0.45s WALL (      73 calls)
     fft          :     42.60s CPU     56.27s WALL (     266 calls)
     ffts         :      1.50s CPU      2.01s WALL (      39 calls)
     fftw         :      8.26s CPU     10.67s WALL (     452 calls)
     interpolate  :      5.92s CPU      8.12s WALL (      20 calls)
 
     Parallel routines
 
     Environ routines
 
     PWSCF        :   6m59.80s CPU  10m56.43s WALL

 
   This run was terminated on:  15: 9:14   5Jun2023            

=------------------------------------------------------------------------------=
   JOB DONE.
=------------------------------------------------------------------------------=
