
     Program PWSCF v.7.1 starts on  5Jun2023 at 13:31:47 

     This program is part of the open-source Quantum ESPRESSO suite
     for quantum simulation of materials; please cite
         "P. Giannozzi et al., J. Phys.:Condens. Matter 21 395502 (2009);
         "P. Giannozzi et al., J. Phys.:Condens. Matter 29 465901 (2017);
         "P. Giannozzi et al., J. Chem. Phys. 152 154105 (2020);
          URL http://www.quantum-espresso.org", 
     in publications or presentations arising from this work. More details at
     http://www.quantum-espresso.org/quote

     Parallel version (MPI), running on     4 processors

     MPI processes distributed on     1 nodes
     0 MiB available memory on the printing compute node when the environment starts
 
     Reading input from espresso.pwi
Warning: card &CELL ignored
Warning: card / ignored

     Current dimensions of program PWSCF are:
     Max number of different atomic species (ntypx) = 10
     Max number of k-points (npk) =  40000
     Max angular momentum in pseudopotentials (lmaxx) =  4
 
     Reading input from environ.in:
     * Environ restarting
     * setting up vacuum environment
     * using electronic solvent mode
     * setting boundary derivatives method to SCCS default
     
     file O.pbe-rrkjus.UPF: wavefunction(s)  2S renormalized
     file H.pbe-rrkjus.UPF: wavefunction(s)  1S renormalized
     Message from routine setup:
     using ibrav=0 with symmetry is DISCOURAGED, use correct ibrav instead
 
     R & G space division:  proc/nbgrp/npool/nimage =       4
     Subspace diagonalization in iterative solution of the eigenvalue problem:
     a serial algorithm will be used

 
     Parallelization info
     --------------------
     sticks:   dense  smooth     PW     G-vecs:    dense   smooth      PW
     Min        8526    3409    848              1184522   299621   37444
     Max        8528    3410    850              1184524   299624   37446
     Sum       34109   13637   3397              4738093  1198487  149781
 
     Using Slab Decomposition
 


     bravais-lattice index     =            0
     lattice parameter (alat)  =      37.7945  a.u.
     unit-cell volume          =   53986.6760 (a.u.)^3
     number of atoms/cell      =            3
     number of atomic types    =            2
     number of electrons       =         8.00
     number of Kohn-Sham states=            4
     kinetic-energy cutoff     =      30.0000  Ry
     charge density cutoff     =     300.0000  Ry
     scf convergence threshold =      1.0E-08
     mixing beta               =       0.4000
     number of iterations used =            8  plain     mixing
     energy convergence thresh.=      1.0E-04
     force convergence thresh. =      1.0E-03
     Exchange-correlation= SLA  PW   PBE  PBE
                           (   1   4   3   4   0   0   0)
     nstep                     =           50


     ================================================================================
 
                                  Environ Setup Summary

     ================================================================================
 
     Please cite

          O. Andreussi, I. Dabo and N. Marzari, J. Chem. Phys. 136, 064102 (2012)

     in publications or presentations arising from this work.

     ================================================================================
 
     Parameters
     ==========

     compensation onset threshold      =               0.1000E+00

     Electrostatic Setup
     ===================

     electrostatic problem to solve    =                  poisson
     numerical solver adopted          =                   direct
     type of auxiliary density adopted =                     none
     numerical core for poisson        =                      fft
     type of pbc corrections           =                parabolic
     numerical core for corrections    =                      1da

     ================================================================================
 

     celldm(1)=  37.794522  celldm(2)=   0.000000  celldm(3)=   0.000000
     celldm(4)=   0.000000  celldm(5)=   0.000000  celldm(6)=   0.000000

     crystal axes: (cart. coord. in units of alat)
               a(1) = (   1.000000   0.000000   0.000000 )  
               a(2) = (   0.000000   1.000000   0.000000 )  
               a(3) = (   0.000000   0.000000   1.000000 )  

     reciprocal axes: (cart. coord. in units 2 pi/alat)
               b(1) = (  1.000000  0.000000  0.000000 )  
               b(2) = (  0.000000  1.000000  0.000000 )  
               b(3) = (  0.000000  0.000000  1.000000 )  


     PseudoPot. # 1 for O  read from file:
     ../pseudos/O.pbe-rrkjus.UPF
     MD5 check sum: fadcf19ee70a498d3030e2e79cf929a4
     Pseudo is Ultrasoft, Zval =  6.0
     Generated by new atomic code, or converted to UPF format
     Using radial grid of 1269 points,  4 beta functions with: 
                l(1) =   0
                l(2) =   0
                l(3) =   1
                l(4) =   1
     Q(r) pseudized with 0 coefficients 


     PseudoPot. # 2 for H  read from file:
     ../pseudos/H.pbe-rrkjus.UPF
     MD5 check sum: 2d52a7f45632fd764c17cc6affed14c8
     Pseudo is Ultrasoft, Zval =  1.0
     Generated by new atomic code, or converted to UPF format
     Using radial grid of 1061 points,  2 beta functions with: 
                l(1) =   0
                l(2) =   0
     Q(r) pseudized with 0 coefficients 


     atomic species   valence    mass     pseudopotential
        O              6.00    15.99900     O ( 1.00)
        H              1.00     1.00800     H ( 1.00)

      4 Sym. Ops. (no inversion) found



   Cartesian axes

     site n.     atom                  positions (alat units)
         1           O   tau(   1) = (   0.5000000   0.5000000   0.5149077  )
         2           H   tau(   2) = (   0.5000000   0.5381620   0.4850923  )
         3           H   tau(   3) = (   0.5000000   0.4618380   0.4850923  )

     number of k points=     1
                       cart. coord. in units 2pi/alat
        k(    1) = (   0.0000000   0.0000000   0.0000000), wk =   2.0000000

     Dense  grid:  4738093 G-vectors     FFT dimensions: ( 216, 216, 216)

     Smooth grid:  1198487 G-vectors     FFT dimensions: ( 135, 135, 135)

     Estimated max dynamical RAM per process >       1.57 GB

     Estimated total dynamical RAM >       6.28 GB

     Atomic positions and unit cell read from directory:
     ./H2O_vacuum.save/
 

     The initial density is read from file :
     ./H2O_vacuum.save/charge-density


     add environment contribution to local potential

     negative rho (up, down):  7.304E-04 0.000E+00
     Starting wfcs from file

     total cpu time spent up to now is       24.7 secs

     Self-consistent Calculation

     iteration #  1     ecut=    30.00 Ry     beta= 0.40
     Davidson diagonalization with overlap
     ethr =  1.00E-05,  avg # of iterations =  1.0

     Threshold (ethr) on eigenvalues was too large:
     Diagonalizing with lowered threshold

     Davidson diagonalization with overlap
     ethr =  1.16E-11,  avg # of iterations =  1.0

     negative rho (up, down):  7.303E-04 0.000E+00

     the potential shift due to the Gaussian-smeared nuclei is    -0.0032 ev

     total cpu time spent up to now is       39.8 secs

     End of self-consistent calculation

          k = 0.0000 0.0000 0.0000 (149781 PWs)   bands (ev):

   -25.3536 -13.1388  -9.2713  -7.2334

     highest occupied level (ev):    -7.2334

!    total energy              =     -34.26816471 Ry
     estimated scf accuracy    <          9.5E-10 Ry

     The total energy is the sum of the following terms:
     one-electron contribution =     -72.55933918 Ry
     hartree contribution      =      37.68999996 Ry
     xc contribution           =      -8.41065952 Ry
     ewald contribution        =       9.00495571 Ry
     electrostatic embedding   =       0.00004136 Ry
     correction to one-el term =       0.00683697 Ry

     WARNING: you are using the parabolic pbc correction;
              the potential shift above must be added to 
              band and Fermi energies.

     convergence has been achieved in   1 iterations

     Forces acting on atoms (cartesian axes, Ry/au):

     atom    1 type  1   force =     0.00000000    0.00000000    0.01111180
     atom    2 type  2   force =     0.00000000    0.01195038   -0.00555590
     atom    3 type  2   force =     0.00000000   -0.01195038   -0.00555590

     Total force =     0.021699     Total SCF correction =     0.000020


     Computing stress (Cartesian axis) and pressure

          total   stress  (Ry/bohr**3)                   (kbar)     P=       -0.01
  -0.00000040   0.00000000   0.00000000           -0.06        0.00        0.00
   0.00000000   0.00000033   0.00000000            0.00        0.05        0.00
   0.00000000   0.00000000  -0.00000012            0.00        0.00       -0.02


     BFGS Geometry Optimization
     Energy error            =      0.0E+00 Ry
     Gradient error          =      1.2E-02 Ry/Bohr

     number of scf cycles    =   1
     number of bfgs steps    =   0

     energy             new  =     -34.2681647089 Ry

     new trust radius        =       0.0131787537 bohr
     new conv_thr            =       0.0000000100 Ry


ATOMIC_POSITIONS (angstrom)
O            10.0000000000       10.0000000000       10.3040346098
H            10.0000000000       10.7695628678        9.6989054451
H            10.0000000000        9.2304371322        9.6989054451



     Writing config-only to output data dir ./H2O_vacuum.save/
     NEW-OLD atomic charge density approx. for the potential

     negative rho (up, down):  9.924E-04 0.000E+00

     add environment contribution to local potential

     total cpu time spent up to now is       72.8 secs

     Self-consistent Calculation

     iteration #  1     ecut=    30.00 Ry     beta= 0.40
     Davidson diagonalization with overlap
     ethr =  1.00E-06,  avg # of iterations =  3.0

     negative rho (up, down):  8.422E-04 0.000E+00

     add environment contribution to local potential

     total cpu time spent up to now is       86.6 secs

     total energy              =     -34.26814459 Ry
     estimated scf accuracy    <       0.00045664 Ry
     electrostatic embedding   =       0.00004148 Ry
     correction to one-el term =       0.00682533 Ry

     iteration #  2     ecut=    30.00 Ry     beta= 0.40
     Davidson diagonalization with overlap
     ethr =  5.71E-06,  avg # of iterations =  2.0

     negative rho (up, down):  7.703E-04 0.000E+00

     add environment contribution to local potential

     total cpu time spent up to now is       97.6 secs

     total energy              =     -34.26823710 Ry
     estimated scf accuracy    <       0.00001877 Ry
     electrostatic embedding   =       0.00004121 Ry
     correction to one-el term =       0.00686446 Ry

     iteration #  3     ecut=    30.00 Ry     beta= 0.40
     Davidson diagonalization with overlap
     ethr =  2.35E-07,  avg # of iterations =  1.0

     negative rho (up, down):  7.607E-04 0.000E+00

     add environment contribution to local potential

     total cpu time spent up to now is      110.2 secs

     total energy              =     -34.26823593 Ry
     estimated scf accuracy    <       0.00000544 Ry
     electrostatic embedding   =       0.00004149 Ry
     correction to one-el term =       0.00685641 Ry

     iteration #  4     ecut=    30.00 Ry     beta= 0.40
     Davidson diagonalization with overlap
     ethr =  6.80E-08,  avg # of iterations =  2.0

     negative rho (up, down):  7.310E-04 0.000E+00

     add environment contribution to local potential

     total cpu time spent up to now is      125.8 secs

     total energy              =     -34.26823684 Ry
     estimated scf accuracy    <       0.00000196 Ry
     electrostatic embedding   =       0.00004181 Ry
     correction to one-el term =       0.00684573 Ry

     iteration #  5     ecut=    30.00 Ry     beta= 0.40
     Davidson diagonalization with overlap
     ethr =  2.44E-08,  avg # of iterations =  2.0

     negative rho (up, down):  7.355E-04 0.000E+00

     add environment contribution to local potential

     total cpu time spent up to now is      137.2 secs

     total energy              =     -34.26823732 Ry
     estimated scf accuracy    <       0.00000010 Ry
     electrostatic embedding   =       0.00004169 Ry
     correction to one-el term =       0.00684819 Ry

     iteration #  6     ecut=    30.00 Ry     beta= 0.40
     Davidson diagonalization with overlap
     ethr =  1.23E-09,  avg # of iterations =  2.0

     negative rho (up, down):  7.273E-04 0.000E+00

     the potential shift due to the Gaussian-smeared nuclei is    -0.0032 ev

     total cpu time spent up to now is      149.2 secs

     End of self-consistent calculation

          k = 0.0000 0.0000 0.0000 (149781 PWs)   bands (ev):

   -25.2436 -13.0250  -9.2746  -7.2117

     highest occupied level (ev):    -7.2117

!    total energy              =     -34.26823735 Ry
     estimated scf accuracy    <          6.2E-10 Ry

     The total energy is the sum of the following terms:
     one-electron contribution =     -72.31836202 Ry
     hartree contribution      =      37.57489407 Ry
     xc contribution           =      -8.39145152 Ry
     ewald contribution        =       8.85979463 Ry
     electrostatic embedding   =       0.00004168 Ry
     correction to one-el term =       0.00684580 Ry

     WARNING: you are using the parabolic pbc correction;
              the potential shift above must be added to 
              band and Fermi energies.

     convergence has been achieved in   6 iterations

     Forces acting on atoms (cartesian axes, Ry/au):

     atom    1 type  1   force =     0.00000000    0.00000000   -0.01301560
     atom    2 type  2   force =     0.00000000   -0.00412973    0.00650780
     atom    3 type  2   force =     0.00000000    0.00412973    0.00650780

     Total force =     0.016977     Total SCF correction =     0.000020


     Computing stress (Cartesian axis) and pressure

          total   stress  (Ry/bohr**3)                   (kbar)     P=       -0.08
  -0.00000040   0.00000000   0.00000000           -0.06        0.00        0.00
   0.00000000  -0.00000053   0.00000000            0.00       -0.08        0.00
   0.00000000   0.00000000  -0.00000062            0.00        0.00       -0.09

     Energy error            =      7.3E-05 Ry
     Gradient error          =      1.3E-02 Ry/Bohr

     number of scf cycles    =   2
     number of bfgs steps    =   1

     energy             old  =     -34.2681647089 Ry
     energy             new  =     -34.2682373509 Ry

     CASE: energy            _new < energy            _old

     new trust radius        =       0.0071439216 bohr
     new conv_thr            =            1.0E-10 Ry


ATOMIC_POSITIONS (angstrom)
O            10.0000000000       10.0000000000       10.3002542093
H            10.0000000000       10.7686233658        9.7007956453
H            10.0000000000        9.2313766342        9.7007956453



     Writing config-only to output data dir ./H2O_vacuum.save/
     NEW-OLD atomic charge density approx. for the potential

     negative rho (up, down):  8.707E-04 0.000E+00

     add environment contribution to local potential

     total cpu time spent up to now is      178.8 secs

     Self-consistent Calculation

     iteration #  1     ecut=    30.00 Ry     beta= 0.40
     Davidson diagonalization with overlap
     ethr =  1.00E-06,  avg # of iterations =  3.0

     negative rho (up, down):  8.001E-04 0.000E+00

     add environment contribution to local potential

     total cpu time spent up to now is      192.8 secs

     total energy              =     -34.26830867 Ry
     estimated scf accuracy    <       0.00007349 Ry
     electrostatic embedding   =       0.00004161 Ry
     correction to one-el term =       0.00685126 Ry

     iteration #  2     ecut=    30.00 Ry     beta= 0.40
     Davidson diagonalization with overlap
     ethr =  9.19E-07,  avg # of iterations =  2.0

     negative rho (up, down):  7.661E-04 0.000E+00

     add environment contribution to local potential

     total cpu time spent up to now is      206.7 secs

     total energy              =     -34.26832522 Ry
     estimated scf accuracy    <       0.00000343 Ry
     electrostatic embedding   =       0.00004169 Ry
     correction to one-el term =       0.00683474 Ry

     iteration #  3     ecut=    30.00 Ry     beta= 0.40
     Davidson diagonalization with overlap
     ethr =  4.29E-08,  avg # of iterations =  1.0

     negative rho (up, down):  7.459E-04 0.000E+00

     add environment contribution to local potential

     total cpu time spent up to now is      217.3 secs

     total energy              =     -34.26832500 Ry
     estimated scf accuracy    <       0.00000102 Ry
     electrostatic embedding   =       0.00004152 Ry
     correction to one-el term =       0.00683766 Ry

     iteration #  4     ecut=    30.00 Ry     beta= 0.40
     Davidson diagonalization with overlap
     ethr =  1.28E-08,  avg # of iterations =  2.0

     negative rho (up, down):  7.351E-04 0.000E+00

     add environment contribution to local potential

     total cpu time spent up to now is      233.4 secs

     total energy              =     -34.26832517 Ry
     estimated scf accuracy    <       0.00000049 Ry
     electrostatic embedding   =       0.00004131 Ry
     correction to one-el term =       0.00684145 Ry

     iteration #  5     ecut=    30.00 Ry     beta= 0.40
     Davidson diagonalization with overlap
     ethr =  6.18E-09,  avg # of iterations =  2.0

     negative rho (up, down):  7.320E-04 0.000E+00

     add environment contribution to local potential

     total cpu time spent up to now is      247.5 secs

     total energy              =     -34.26832526 Ry
     estimated scf accuracy    <       0.00000001 Ry
     electrostatic embedding   =       0.00004136 Ry
     correction to one-el term =       0.00684023 Ry

     iteration #  6     ecut=    30.00 Ry     beta= 0.40
     Davidson diagonalization with overlap
     ethr =  1.42E-10,  avg # of iterations =  2.0

     negative rho (up, down):  7.299E-04 0.000E+00

     add environment contribution to local potential

     total cpu time spent up to now is      257.8 secs

     total energy              =     -34.26832526 Ry
     estimated scf accuracy    <          4.6E-09 Ry
     electrostatic embedding   =       0.00004135 Ry
     correction to one-el term =       0.00684090 Ry

     iteration #  7     ecut=    30.00 Ry     beta= 0.40
     Davidson diagonalization with overlap
     ethr =  5.80E-11,  avg # of iterations =  2.0

     negative rho (up, down):  7.290E-04 0.000E+00

     add environment contribution to local potential

     total cpu time spent up to now is      268.8 secs

     total energy              =     -34.26832526 Ry
     estimated scf accuracy    <          8.0E-10 Ry
     electrostatic embedding   =       0.00004136 Ry
     correction to one-el term =       0.00684077 Ry

     iteration #  8     ecut=    30.00 Ry     beta= 0.40
     Davidson diagonalization with overlap
     ethr =  9.99E-12,  avg # of iterations =  2.0

     negative rho (up, down):  7.285E-04 0.000E+00

     the potential shift due to the Gaussian-smeared nuclei is    -0.0032 ev

     total cpu time spent up to now is      277.2 secs

     End of self-consistent calculation

          k = 0.0000 0.0000 0.0000 (149781 PWs)   bands (ev):

   -25.2819 -13.0860  -9.2580  -7.2190

     highest occupied level (ev):    -7.2190

!    total energy              =     -34.26832526 Ry
     estimated scf accuracy    <          2.3E-12 Ry

     The total energy is the sum of the following terms:
     one-electron contribution =     -72.41433963 Ry
     hartree contribution      =      37.62133552 Ry
     xc contribution           =      -8.39918534 Ry
     ewald contribution        =       8.91698201 Ry
     electrostatic embedding   =       0.00004136 Ry
     correction to one-el term =       0.00684082 Ry

     WARNING: you are using the parabolic pbc correction;
              the potential shift above must be added to 
              band and Fermi energies.

     convergence has been achieved in   8 iterations

     Forces acting on atoms (cartesian axes, Ry/au):

     atom    1 type  1   force =     0.00000000    0.00000000   -0.00244250
     atom    2 type  2   force =     0.00000000    0.00140265    0.00122125
     atom    3 type  2   force =     0.00000000   -0.00140265    0.00122125

     Total force =     0.003589     Total SCF correction =     0.000002


     Computing stress (Cartesian axis) and pressure

          total   stress  (Ry/bohr**3)                   (kbar)     P=       -0.05
  -0.00000040   0.00000000   0.00000000           -0.06        0.00        0.00
   0.00000000  -0.00000023   0.00000000            0.00       -0.03        0.00
   0.00000000   0.00000000  -0.00000040            0.00        0.00       -0.06

     Energy error            =      8.8E-05 Ry
     Gradient error          =      2.4E-03 Ry/Bohr

     number of scf cycles    =   3
     number of bfgs steps    =   2

     energy             old  =     -34.2682373509 Ry
     energy             new  =     -34.2683252585 Ry

     CASE: energy            _new < energy            _old

     new trust radius        =       0.0027761708 bohr
     new conv_thr            =            1.0E-10 Ry


ATOMIC_POSITIONS (angstrom)
O            10.0000000000       10.0000000000       10.2987851230
H            10.0000000000       10.7697155099        9.7015301885
H            10.0000000000        9.2302844901        9.7015301885



     Writing config-only to output data dir ./H2O_vacuum.save/
     NEW-OLD atomic charge density approx. for the potential

     negative rho (up, down):  7.535E-04 0.000E+00

     add environment contribution to local potential

     total cpu time spent up to now is      302.6 secs

     Self-consistent Calculation

     iteration #  1     ecut=    30.00 Ry     beta= 0.40
     Davidson diagonalization with overlap
     ethr =  1.00E-06,  avg # of iterations =  2.0

     Threshold (ethr) on eigenvalues was too large:
     Diagonalizing with lowered threshold

     Davidson diagonalization with overlap
     ethr =  1.87E-08,  avg # of iterations =  2.0

     negative rho (up, down):  7.356E-04 0.000E+00

     add environment contribution to local potential

     total cpu time spent up to now is      317.2 secs

     total energy              =     -34.26833689 Ry
     estimated scf accuracy    <       0.00000120 Ry
     electrostatic embedding   =       0.00004133 Ry
     correction to one-el term =       0.00684202 Ry

     iteration #  2     ecut=    30.00 Ry     beta= 0.40
     Davidson diagonalization with overlap
     ethr =  1.50E-08,  avg # of iterations =  2.0

     negative rho (up, down):  7.289E-04 0.000E+00

     add environment contribution to local potential

     total cpu time spent up to now is      326.9 secs

     total energy              =     -34.26833714 Ry
     estimated scf accuracy    <       0.00000023 Ry
     electrostatic embedding   =       0.00004129 Ry
     correction to one-el term =       0.00683964 Ry

     iteration #  3     ecut=    30.00 Ry     beta= 0.40
     Davidson diagonalization with overlap
     ethr =  2.88E-09,  avg # of iterations =  1.0

     negative rho (up, down):  7.319E-04 0.000E+00

     add environment contribution to local potential

     total cpu time spent up to now is      336.0 secs

     total energy              =     -34.26833716 Ry
     estimated scf accuracy    <       0.00000007 Ry
     electrostatic embedding   =       0.00004123 Ry
     correction to one-el term =       0.00683969 Ry

     iteration #  4     ecut=    30.00 Ry     beta= 0.40
     Davidson diagonalization with overlap
     ethr =  9.28E-10,  avg # of iterations =  2.0

     negative rho (up, down):  7.295E-04 0.000E+00

     add environment contribution to local potential

     total cpu time spent up to now is      346.1 secs

     total energy              =     -34.26833717 Ry
     estimated scf accuracy    <       0.00000001 Ry
     electrostatic embedding   =       0.00004116 Ry
     correction to one-el term =       0.00683950 Ry

     iteration #  5     ecut=    30.00 Ry     beta= 0.40
     Davidson diagonalization with overlap
     ethr =  1.39E-10,  avg # of iterations =  2.0

     negative rho (up, down):  7.289E-04 0.000E+00

     add environment contribution to local potential

     total cpu time spent up to now is      357.6 secs

     total energy              =     -34.26833718 Ry
     estimated scf accuracy    <          1.5E-09 Ry
     electrostatic embedding   =       0.00004116 Ry
     correction to one-el term =       0.00683933 Ry

     iteration #  6     ecut=    30.00 Ry     beta= 0.40
     Davidson diagonalization with overlap
     ethr =  1.90E-11,  avg # of iterations =  2.0

     negative rho (up, down):  7.288E-04 0.000E+00

     add environment contribution to local potential

     total cpu time spent up to now is      367.2 secs

     total energy              =     -34.26833718 Ry
     estimated scf accuracy    <          7.2E-10 Ry
     electrostatic embedding   =       0.00004117 Ry
     correction to one-el term =       0.00683919 Ry

     iteration #  7     ecut=    30.00 Ry     beta= 0.40
     Davidson diagonalization with overlap
     ethr =  8.96E-12,  avg # of iterations =  1.0

     negative rho (up, down):  7.287E-04 0.000E+00

     add environment contribution to local potential

     total cpu time spent up to now is      377.1 secs

     total energy              =     -34.26833718 Ry
     estimated scf accuracy    <          2.0E-10 Ry
     electrostatic embedding   =       0.00004117 Ry
     correction to one-el term =       0.00683920 Ry

     iteration #  8     ecut=    30.00 Ry     beta= 0.40
     Davidson diagonalization with overlap
     ethr =  2.56E-12,  avg # of iterations =  2.0

     negative rho (up, down):  7.286E-04 0.000E+00

     the potential shift due to the Gaussian-smeared nuclei is    -0.0032 ev

     total cpu time spent up to now is      385.1 secs

     End of self-consistent calculation

          k = 0.0000 0.0000 0.0000 (149781 PWs)   bands (ev):

   -25.2817 -13.1041  -9.2447  -7.2186

     highest occupied level (ev):    -7.2186

!    total energy              =     -34.26833717 Ry
     estimated scf accuracy    <          1.3E-12 Ry

     The total energy is the sum of the following terms:
     one-electron contribution =     -72.42430296 Ry
     hartree contribution      =      37.62656567 Ry
     xc contribution           =      -8.40005103 Ry
     ewald contribution        =       8.92257075 Ry
     electrostatic embedding   =       0.00004117 Ry
     correction to one-el term =       0.00683923 Ry

     WARNING: you are using the parabolic pbc correction;
              the potential shift above must be added to 
              band and Fermi energies.

     convergence has been achieved in   8 iterations

     Forces acting on atoms (cartesian axes, Ry/au):

     atom    1 type  1   force =     0.00000000    0.00000000   -0.00046813
     atom    2 type  2   force =     0.00000000    0.00143682    0.00023407
     atom    3 type  2   force =     0.00000000   -0.00143682    0.00023407

     Total force =     0.002111     Total SCF correction =     0.000002


     Computing stress (Cartesian axis) and pressure

          total   stress  (Ry/bohr**3)                   (kbar)     P=       -0.05
  -0.00000040   0.00000000   0.00000000           -0.06        0.00        0.00
   0.00000000  -0.00000023   0.00000000            0.00       -0.03        0.00
   0.00000000   0.00000000  -0.00000036            0.00        0.00       -0.05

     Energy error            =      1.2E-05 Ry
     Gradient error          =      1.4E-03 Ry/Bohr

     number of scf cycles    =   4
     number of bfgs steps    =   3

     energy             old  =     -34.2683252585 Ry
     energy             new  =     -34.2683371734 Ry

     CASE: energy            _new < energy            _old

     new trust radius        =       0.0037084522 bohr
     new conv_thr            =            1.0E-10 Ry


ATOMIC_POSITIONS (angstrom)
O            10.0000000000       10.0000000000       10.2973349880
H            10.0000000000       10.7715390785        9.7022552560
H            10.0000000000        9.2284609215        9.7022552560



     Writing config-only to output data dir ./H2O_vacuum.save/
     NEW-OLD atomic charge density approx. for the potential

     negative rho (up, down):  7.693E-04 0.000E+00

     add environment contribution to local potential

     total cpu time spent up to now is      412.6 secs

     Self-consistent Calculation

     iteration #  1     ecut=    30.00 Ry     beta= 0.40
     Davidson diagonalization with overlap
     ethr =  1.00E-06,  avg # of iterations =  2.0

     Threshold (ethr) on eigenvalues was too large:
     Diagonalizing with lowered threshold

     Davidson diagonalization with overlap
     ethr =  1.27E-08,  avg # of iterations =  4.0

     negative rho (up, down):  7.406E-04 0.000E+00

     add environment contribution to local potential

     total cpu time spent up to now is      428.8 secs

     total energy              =     -34.26834345 Ry
     estimated scf accuracy    <       0.00000132 Ry
     electrostatic embedding   =       0.00004114 Ry
     correction to one-el term =       0.00683992 Ry

     iteration #  2     ecut=    30.00 Ry     beta= 0.40
     Davidson diagonalization with overlap
     ethr =  1.65E-08,  avg # of iterations =  1.0

     negative rho (up, down):  7.314E-04 0.000E+00

     add environment contribution to local potential

     total cpu time spent up to now is      441.9 secs

     total energy              =     -34.26834356 Ry
     estimated scf accuracy    <       0.00000035 Ry
     electrostatic embedding   =       0.00004106 Ry
     correction to one-el term =       0.00683979 Ry

     iteration #  3     ecut=    30.00 Ry     beta= 0.40
     Davidson diagonalization with overlap
     ethr =  4.34E-09,  avg # of iterations =  1.0

     negative rho (up, down):  7.314E-04 0.000E+00

     add environment contribution to local potential

     total cpu time spent up to now is      455.3 secs

     total energy              =     -34.26834359 Ry
     estimated scf accuracy    <       0.00000002 Ry
     electrostatic embedding   =       0.00004098 Ry
     correction to one-el term =       0.00683871 Ry

     iteration #  4     ecut=    30.00 Ry     beta= 0.40
     Davidson diagonalization with overlap
     ethr =  2.56E-10,  avg # of iterations =  2.0

     negative rho (up, down):  7.303E-04 0.000E+00

     add environment contribution to local potential

     total cpu time spent up to now is      468.1 secs

     total energy              =     -34.26834360 Ry
     estimated scf accuracy    <          1.3E-09 Ry
     electrostatic embedding   =       0.00004095 Ry
     correction to one-el term =       0.00683807 Ry

     iteration #  5     ecut=    30.00 Ry     beta= 0.40
     Davidson diagonalization with overlap
     ethr =  1.65E-11,  avg # of iterations =  2.0

     negative rho (up, down):  7.290E-04 0.000E+00

     add environment contribution to local potential

     total cpu time spent up to now is      481.8 secs

     total energy              =     -34.26834361 Ry
     estimated scf accuracy    <          1.1E-10 Ry
     electrostatic embedding   =       0.00004095 Ry
     correction to one-el term =       0.00683781 Ry

     iteration #  6     ecut=    30.00 Ry     beta= 0.40
     Davidson diagonalization with overlap
     ethr =  1.44E-12,  avg # of iterations =  2.0

     negative rho (up, down):  7.285E-04 0.000E+00

     the potential shift due to the Gaussian-smeared nuclei is    -0.0032 ev

     total cpu time spent up to now is      499.4 secs

     End of self-consistent calculation

          k = 0.0000 0.0000 0.0000 (149781 PWs)   bands (ev):

   -25.2738 -13.1189  -9.2281  -7.2167

     highest occupied level (ev):    -7.2167

!    total energy              =     -34.26834361 Ry
     estimated scf accuracy    <          8.8E-12 Ry

     The total energy is the sum of the following terms:
     one-electron contribution =     -72.41999618 Ry
     hartree contribution      =      37.62511249 Ry
     xc contribution           =      -8.39979849 Ry
     ewald contribution        =       8.91945978 Ry
     electrostatic embedding   =       0.00004095 Ry
     correction to one-el term =       0.00683783 Ry

     WARNING: you are using the parabolic pbc correction;
              the potential shift above must be added to 
              band and Fermi energies.

     convergence has been achieved in   6 iterations

     Forces acting on atoms (cartesian axes, Ry/au):

     atom    1 type  1   force =     0.00000000    0.00000000    0.00035712
     atom    2 type  2   force =     0.00000000    0.00036110   -0.00017856
     atom    3 type  2   force =     0.00000000   -0.00036110   -0.00017856

     Total force =     0.000672     Total SCF correction =     0.000007


     Computing stress (Cartesian axis) and pressure

          total   stress  (Ry/bohr**3)                   (kbar)     P=       -0.05
  -0.00000040   0.00000000   0.00000000           -0.06        0.00        0.00
   0.00000000  -0.00000029   0.00000000            0.00       -0.04        0.00
   0.00000000   0.00000000  -0.00000034            0.00        0.00       -0.05

     Energy error            =      6.4E-06 Ry
     Gradient error          =      3.6E-04 Ry/Bohr

     bfgs converged in   5 scf cycles and   4 bfgs steps
     (criteria: energy <  1.0E-04 Ry, force <  1.0E-03 Ry/Bohr)

     End of BFGS Geometry Optimization

     Final energy             =     -34.2683436102 Ry

     File ./H2O_vacuum.bfgs deleted, as requested
Begin final coordinates

ATOMIC_POSITIONS (angstrom)
O            10.0000000000       10.0000000000       10.2973349880
H            10.0000000000       10.7715390785        9.7022552560
H            10.0000000000        9.2284609215        9.7022552560
End final coordinates



     Writing all to output data dir ./H2O_vacuum.save/
 
     init_run     :     14.24s CPU     23.60s WALL (       1 calls)
     electrons    :    233.82s CPU    361.68s WALL (       5 calls)
     update_pot   :     12.41s CPU     17.67s WALL (       4 calls)
     forces       :     14.39s CPU     27.84s WALL (       5 calls)
     stress       :     37.13s CPU     57.34s WALL (       5 calls)

     Called by init_run:
     wfcinit      :      0.05s CPU      0.19s WALL (       1 calls)
     potinit      :      4.07s CPU      6.83s WALL (       1 calls)
     hinit0       :      2.44s CPU      3.60s WALL (       1 calls)

     Called by electrons:
     c_bands      :     16.39s CPU     21.34s WALL (      32 calls)
     sum_band     :     70.17s CPU    110.85s WALL (      32 calls)
     v_of_rho     :     72.05s CPU     96.82s WALL (      34 calls)
     newd         :     39.17s CPU     89.26s WALL (      34 calls)
     mix_rho      :     12.98s CPU     17.82s WALL (      32 calls)

     Called by c_bands:
     init_us_2    :      0.42s CPU      2.48s WALL (      64 calls)
     init_us_2:cp :      0.42s CPU      2.48s WALL (      64 calls)
     cegterg      :     15.17s CPU     17.81s WALL (      32 calls)

     Called by *egterg:
     cdiaghg      :      0.01s CPU      0.08s WALL (      84 calls)
     h_psi        :     13.56s CPU     15.73s WALL (      92 calls)
     s_psi        :      0.21s CPU      0.24s WALL (      92 calls)
     g_psi        :      0.05s CPU      0.06s WALL (      60 calls)

     Called by h_psi:
     h_psi:calbec :      0.21s CPU      0.23s WALL (      92 calls)
     vloc_psi     :     13.02s CPU     15.07s WALL (      92 calls)
     add_vuspsi   :      0.22s CPU      0.24s WALL (      92 calls)

     General routines
     calbec       :      0.37s CPU      0.46s WALL (     149 calls)
     fft          :     67.74s CPU     83.26s WALL (     479 calls)
     ffts         :      2.18s CPU      2.81s WALL (      66 calls)
     fftw         :     12.82s CPU     14.86s WALL (     802 calls)
     interpolate  :      6.32s CPU      8.12s WALL (      34 calls)
 
     Parallel routines
 
     Environ routines
 
     PWSCF        :   5m29.57s CPU   8m37.29s WALL

 
   This run was terminated on:  13:40:24   5Jun2023            

=------------------------------------------------------------------------------=
   JOB DONE.
=------------------------------------------------------------------------------=
