<UPF version="2.0.1">
<PP_INFO>
Generated by new atomic code, or converted to UPF format
Author:
Generation date:
Pseudopotential type: US
Element: H
Functional:  SLA  PZ   NOGX NOGC
Suggested minimum cutoff for wavefunctions:   0. Ry
Suggested minimum cutoff for charge density:   0. Ry
The Pseudo was generated with a Non-Relativistic Calculation
L component and cutoff radius for Local Potential:  0   0.0000
Valence configuration:
nl pn  l   occ       Rcut    Rcut US       E pseu
1S  0  0  1.00      1.100      1.200     0.000000
Generation configuration: not available.
</PP_INFO>
<!--
END OF HUMAN READABLE SECTION
-->
<PP_HEADER generated="Generated by new atomic code, or converted to UPF format" author="" date="" comment="" element="H " pseudo_type="US" relativistic="no" is_ultrasoft="true" is_paw="false" is_coulomb="false" has_so="false" has_wfc="false" has_gipaw="false" paw_as_gipaw="false" core_correction="false" functional=" SLA  PZ   NOGX NOGC" z_valence="1.000000000000e0" total_psenergy="-6.028112947200e-1" wfc_cutoff="0.000000000000e0" rho_cutoff="0.000000000000e0" l_max="1" l_max_rho="0" l_local="0" mesh_size="1061" number_of_wfc="1" number_of_proj="2"/>
<PP_MESH dx="9.999999999998e-3" mesh="1061" xmin="-5.999999999999e0" rmax="9.948431564190e1" zmesh="1.000000000000e0">
<PP_R>
2.478752176670000e-3 2.503664050200000e-3 2.528826292230000e-3 2.554241418990000e-3
2.579911972030000e-3 2.605840518410000e-3 2.632029651010000e-3 2.658481988780000e-3
2.685200176950000e-3 2.712186887390000e-3 2.739444818770000e-3 2.766976696910000e-3
2.794785275040001e-3 2.822873334020000e-3 2.851243682680000e-3 2.879899158090000e-3
2.908842625810000e-3 2.938076980220000e-3 2.967605144780000e-3 2.997430072330000e-3
3.027554745380000e-3 3.057982176420000e-3 3.088715408240000e-3 3.119757514160000e-3
3.151111598440000e-3 3.182780796509999e-3 3.214768275309999e-3 3.247077233610000e-3
3.279710902340000e-3 3.312672544900000e-3 3.345965457470000e-3 3.379592969380000e-3
3.413558443400000e-3 3.447865276099999e-3 3.482516898210000e-3 3.517516774910000e-3
3.552868406220000e-3 3.588575327330000e-3 3.624641108970001e-3 3.661069357730000e-3
3.697863716480000e-3 3.735027864690000e-3 3.772565518790000e-3 3.810480432590000e-3
3.848776397610000e-3 3.887457243480000e-3 3.926526838310000e-3 3.965989089090000e-3
4.005847942090000e-3 4.046107383220000e-3 4.086771438460000e-3 4.127844174260000e-3
4.169329697900000e-3 4.211232158000000e-3 4.253555744820000e-3 4.296304690750000e-3
4.339483270740000e-3 4.383095802670000e-3 4.427146647829999e-3 4.471640211350000e-3
4.516580942609999e-3 4.561973335739999e-3 4.607821929990000e-3 4.654131310280000e-3
4.700906107580000e-3 4.748150999410000e-3 4.795870710300000e-3 4.844070012250000e-3
4.892753725240000e-3 4.941926717679999e-3 4.991593906910000e-3 5.041760259689999e-3
5.092430792699999e-3 5.143610573029999e-3 5.195304718710000e-3 5.247518399180001e-3
5.300256835870000e-3 5.353525302660000e-3 5.407329126439999e-3 5.461673687639999e-3
5.516564420760000e-3 5.572006814920001e-3 5.628006414400000e-3 5.684568819219999e-3
5.741699685650000e-3 5.799404726840000e-3 5.857689713339999e-3 5.916560473680001e-3
5.976022895010001e-3 6.036082923600000e-3 6.096746565519999e-3 6.158019887169999e-3
6.219909015940001e-3 6.282420140799999e-3 6.345559512910000e-3 6.409333446260001e-3
6.473748318290000e-3 6.538810570550001e-3 6.604526709310000e-3 6.670903306260000e-3
6.737946999090000e-3 6.805664492230000e-3 6.874062557500000e-3 6.943148034750001e-3
7.012927832590000e-3 7.083408929050000e-3 7.154598372310001e-3 7.226503281379999e-3
7.299130846790001e-3 7.372488331370000e-3 7.446583070920000e-3 7.521422474990000e-3
7.597014027580000e-3 7.673365287900000e-3 7.750483891140001e-3 7.828377549229999e-3
7.907054051590000e-3 7.986521265960000e-3 8.066787139100001e-3 8.147859697680000e-3
8.229747049020000e-3 8.312457381920000e-3 8.395998967490000e-3 8.480380159950000e-3
8.565609397500001e-3 8.651695203119999e-3 8.738646185469999e-3 8.826471039729999e-3
8.915178548440000e-3 9.004777582439999e-3 9.095277101700001e-3 9.186686156239999e-3
9.279013887060000e-3 9.372269527010001e-3 9.466462401710000e-3 9.561601930540000e-3
9.657697627540001e-3 9.754759102340000e-3 9.852796061190000e-3 9.951818307850001e-3
1.005183574460000e-2 1.015285837340000e-2 1.025489629640000e-2 1.035795971760000e-2
1.046205894340000e-2 1.056720438390000e-2 1.067340655350000e-2 1.078067607270000e-2
1.088902366860000e-2 1.099846017580000e-2 1.110899653820000e-2 1.122064380960000e-2
1.133341315470000e-2 1.144731585050000e-2 1.156236328750000e-2 1.167856697040000e-2
1.179593851980000e-2 1.191448967280000e-2 1.203423228470000e-2 1.215517832990000e-2
1.227733990310000e-2 1.240072922040000e-2 1.252535862110000e-2 1.265124056800000e-2
1.277838764950000e-2 1.290681258050000e-2 1.303652820340000e-2 1.316754749010000e-2
1.329988354240000e-2 1.343354959420000e-2 1.356855901220000e-2 1.370492529740000e-2
1.384266208650000e-2 1.398178315330000e-2 1.412230241020000e-2 1.426423390900000e-2
1.440759184310000e-2 1.455239054840000e-2 1.469864450490000e-2 1.484636833810000e-2
1.499557682050000e-2 1.514628487300000e-2 1.529850756670000e-2 1.545226012390000e-2
1.560755792000000e-2 1.576441648490000e-2 1.592285150450000e-2 1.608287882260000e-2
1.624451444190000e-2 1.640777452630000e-2 1.657267540180000e-2 1.673923355860000e-2
1.690746565270000e-2 1.707738850750000e-2 1.724901911530000e-2 1.742237463950000e-2
1.759747241560000e-2 1.777432995370000e-2 1.795296493950000e-2 1.813339523680000e-2
1.831563888870000e-2 1.849971411980000e-2 1.868563933770000e-2 1.887343313520000e-2
1.906311429160000e-2 1.925470177540000e-2 1.944821474540000e-2 1.964367255310000e-2
1.984109474440000e-2 2.004050106170000e-2 2.024191144580000e-2 2.044534603790000e-2
2.065082518170000e-2 2.085836942520000e-2 2.106799952300000e-2 2.127973643840000e-2
2.149360134510000e-2 2.170961562980000e-2 2.192780089430000e-2 2.214817895700000e-2
2.237077185620000e-2 2.259560185110000e-2 2.282269142510000e-2 2.305206328720000e-2
2.328374037490000e-2 2.351774585600000e-2 2.375410313130000e-2 2.399283583670000e-2
2.423396784570000e-2 2.447752327170000e-2 2.472352647030000e-2 2.497200204230000e-2
2.522297483520000e-2 2.547646994670000e-2 2.573251272640000e-2 2.599112877880000e-2
2.625234396570000e-2 2.651618440890000e-2 2.678267649260000e-2 2.705184686640000e-2
2.732372244730001e-2 2.759833042320000e-2 2.787569825520000e-2 2.815585368030000e-2
2.843882471420000e-2 2.872463965420000e-2 2.901332708220000e-2 2.930491586700001e-2
2.959943516790000e-2 2.989691443690000e-2 3.019738342230000e-2 3.050087217120000e-2
3.080741103280000e-2 3.111703066110000e-2 3.142976201840000e-2 3.174563637810000e-2
3.206468532790000e-2 3.238694077290000e-2 3.271243493900000e-2 3.304120037590000e-2
3.337326996030000e-2 3.370867689960000e-2 3.404745473460000e-2 3.438963734350000e-2
3.473525894470000e-2 3.508435410080000e-2 3.543695772160000e-2 3.579310506770000e-2
3.615283175400000e-2 3.651617375370000e-2 3.688316740120000e-2 3.725384939620000e-2
3.762825680720000e-2 3.800642707520000e-2 3.838839801760000e-2 3.877420783170000e-2
3.916389509900000e-2 3.955749878840000e-2 3.995505826070000e-2 4.035661327200000e-2
4.076220397839999e-2 4.117187093909999e-2 4.158565512120000e-2 4.200359790339999e-2
4.242574108050000e-2 4.285212686700000e-2 4.328279790200000e-2 4.371779725280000e-2
4.415716841970000e-2 4.460095534030001e-2 4.504920239360001e-2 4.550195440460000e-2
4.595925664900000e-2 4.642115485740000e-2 4.688769521999999e-2 4.735892439110001e-2
4.783488949420000e-2 4.831563812610000e-2 4.880121836200000e-2 4.929167876050000e-2
4.978706836790000e-2 5.028743672360000e-2 5.079283386490000e-2 5.130331033190000e-2
5.181891717270000e-2 5.233970594840000e-2 5.286572873840000e-2 5.339703814520000e-2
5.393368730040001e-2 5.447572986919999e-2 5.502322005640000e-2 5.557621261150000e-2
5.613476283410001e-2 5.669892657980000e-2 5.726876026549999e-2 5.784432087480001e-2
5.842566596450000e-2 5.901285366940000e-2 5.960594270890001e-2 6.020499239240000e-2
6.081006262520000e-2 6.142121391500001e-2 6.203850737740000e-2 6.266200474220001e-2
6.329176835960000e-2 6.392786120670001e-2 6.457034689320000e-2 6.521928966810000e-2
6.587475442640001e-2 6.653680671500000e-2 6.720551273970000e-2 6.788093937179999e-2
6.856315415430001e-2 6.925222530930000e-2 6.994822174470000e-2 7.065121306040000e-2
7.136126955640000e-2 7.207846223880000e-2 7.280286282740001e-2 7.353454376309999e-2
7.427357821430000e-2 7.502004008530000e-2 7.577400402280000e-2 7.653554542389999e-2
7.730474044330000e-2 7.808166600120002e-2 7.886639979069999e-2 7.965902028590000e-2
8.045960674950001e-2 8.126823924089999e-2 8.208499862389999e-2 8.290996657520001e-2
8.374322559219999e-2 8.458485900159999e-2 8.543495096730000e-2 8.629358649940000e-2
8.716085146200001e-2 8.803683258240000e-2 8.892161745939999e-2 8.981529457220001e-2
9.071795328940000e-2 9.162968387750002e-2 9.255057751030000e-2 9.348072627810000e-2
9.442022319630000e-2 9.536916221550001e-2 9.632763823050000e-2 9.729574708950000e-2
9.827358560440000e-2 9.926125155959999e-2 1.002588437230000e-1 1.012664618540000e-1
1.022842067160000e-1 1.033121800830000e-1 1.043504847550000e-1 1.053992245620000e-1
1.064585043790000e-1 1.075284301360000e-1 1.086091088250000e-1 1.097006485160000e-1
1.108031583620000e-1 1.119167486170000e-1 1.130415306400000e-1 1.141776169110000e-1
1.153251210380000e-1 1.164841577730000e-1 1.176548430220000e-1 1.188372938520000e-1
1.200316285110000e-1 1.212379664330000e-1 1.224564282530000e-1 1.236871358170000e-1
1.249302121990000e-1 1.261857817050000e-1 1.274539698950000e-1 1.287349035880000e-1
1.300287108780000e-1 1.313355211480000e-1 1.326554650800000e-1 1.339886746690000e-1
1.353352832370000e-1 1.366954254460000e-1 1.380692373110000e-1 1.394568562150000e-1
1.408584209210000e-1 1.422740715870000e-1 1.437039497780000e-1 1.451481984840000e-1
1.466069621300000e-1 1.480803865950000e-1 1.495686192230000e-1 1.510718088360000e-1
1.525901057570000e-1 1.541236618150000e-1 1.556726303680000e-1 1.572371663140000e-1
1.588174261070000e-1 1.604135677750000e-1 1.620257509340000e-1 1.636541368030000e-1
1.652988882220000e-1 1.669601696670000e-1 1.686381472690000e-1 1.703329888250000e-1
1.720448638230000e-1 1.737739434500000e-1 1.755204006170000e-1 1.772844099700000e-1
1.790661479110000e-1 1.808657926170000e-1 1.826835240530000e-1 1.845195239930000e-1
1.863739760390000e-1 1.882470656390000e-1 1.901389801020000e-1 1.920499086210000e-1
1.939800422910000e-1 1.959295741270000e-1 1.978986990840000e-1 1.998876140750000e-1
2.018965179950000e-1 2.039256117340000e-1 2.059750982050000e-1 2.080451823570000e-1
2.101360712010000e-1 2.122479738270000e-1 2.143811014270000e-1 2.165356673160000e-1
2.187118869520000e-1 2.209099779590000e-1 2.231301601480000e-1 2.253726555390000e-1
2.276376883840000e-1 2.299254851870000e-1 2.322362747300000e-1 2.345702880940000e-1
2.369277586820000e-1 2.393089222440000e-1 2.417140168970000e-1 2.441432831530000e-1
2.465969639420000e-1 2.490753046320000e-1 2.515785530600000e-1 2.541069595530000e-1
2.566607769540000e-1 2.592402606460000e-1 2.618456685800000e-1 2.644772613000000e-1
2.671353019660000e-1 2.698200563850000e-1 2.725317930340000e-1 2.752707830900000e-1
2.780373004530000e-1 2.808316217780000e-1 2.836540265000000e-1 2.865047968600000e-1
2.893842179390000e-1 2.922925776810000e-1 2.952301669240000e-1 2.981972794300000e-1
3.011942119120000e-1 3.042212640670000e-1 3.072787386010000e-1 3.103669412650000e-1
3.134861808830000e-1 3.166367693790000e-1 3.198190218160000e-1 3.230332564220000e-1
3.262797946230000e-1 3.295589610750000e-1 3.328710836980000e-1 3.362164937070000e-1
3.395955256450000e-1 3.430085174190000e-1 3.464558103300000e-1 3.499377491110000e-1
3.534546819590000e-1 3.570069605690000e-1 3.605949401730000e-1 3.642189795720000e-1
3.678794411710000e-1 3.715766910220000e-1 3.753110988510000e-1 3.790830381030000e-1
3.828928859750000e-1 3.867410234550000e-1 3.906278353590000e-1 3.945537103720000e-1
3.985190410850000e-1 4.025242240340000e-1 4.065696597410000e-1 4.106557527520000e-1
4.147829116820000e-1 4.189515492480000e-1 4.231620823180000e-1 4.274149319490000e-1
4.317105234290000e-1 4.360492863220000e-1 4.404316545060000e-1 4.448580662230000e-1
4.493289641170001e-1 4.538447952820000e-1 4.584060113050000e-1 4.630130683110000e-1
4.676664270100000e-1 4.723665527410000e-1 4.771139155210000e-1 4.819089900900000e-1
4.867522559600000e-1 4.916441974610001e-1 4.965853037910001e-1 5.015760690660001e-1
5.066169923660000e-1 5.117085777870000e-1 5.168513344920001e-1 5.220457767609999e-1
5.272924240430000e-1 5.325918010070000e-1 5.379444375949999e-1 5.433508690740000e-1
5.488116360939999e-1 5.543272847350000e-1 5.598983665650000e-1 5.655254387000000e-1
5.712090638490000e-1 5.769498103800000e-1 5.827482523740000e-1 5.886049696780001e-1
5.945205479700000e-1 6.004955788120000e-1 6.065306597130000e-1 6.126263941840000e-1
6.187833918059999e-1 6.250022682830000e-1 6.312836455070000e-1 6.376281516220001e-1
6.440364210829999e-1 6.505090947230000e-1 6.570468198150000e-1 6.636502501360000e-1
6.703200460360001e-1 6.770568744980000e-1 6.838614092120000e-1 6.907343306370000e-1
6.976763260710000e-1 7.046880897190000e-1 7.117703227630000e-1 7.189237334320000e-1
7.261490370740001e-1 7.334469562240001e-1 7.408182206819999e-1 7.482635675790000e-1
7.557837414560000e-1 7.633794943370001e-1 7.710515858040000e-1 7.788007830710000e-1
7.866278610670000e-1 7.945336025030000e-1 8.025187979620000e-1 8.105842459700000e-1
8.187307530780000e-1 8.269591339430001e-1 8.352702114110000e-1 8.436648165959999e-1
8.521437889660000e-1 8.607079764249999e-1 8.693582353990001e-1 8.780954309209999e-1
8.869204367170001e-1 8.958341352969999e-1 9.048374180360000e-1 9.139311852710000e-1
9.231163463870001e-1 9.323938199060001e-1 9.417645335840000e-1 9.512294245010001e-1
9.607894391520000e-1 9.704455335490000e-1 9.801986733069999e-1 9.900498337489999e-1
1.000000000000000e0 1.010050167080000e0 1.020201340030000e0 1.030454533950000e0
1.040810774190000e0 1.051271096380000e0 1.061836546550000e0 1.072508181250000e0
1.083287067670000e0 1.094174283710000e0 1.105170918080000e0 1.116278070460000e0
1.127496851580000e0 1.138828383320000e0 1.150273798860000e0 1.161834242730000e0
1.173510870990000e0 1.185304851320000e0 1.197217363120000e0 1.209249597660000e0
1.221402758160000e0 1.233678059960000e0 1.246076730590000e0 1.258600009930000e0
1.271249150320000e0 1.284025416690000e0 1.296930086670000e0 1.309964450730000e0
1.323129812340000e0 1.336427488030000e0 1.349858807580000e0 1.363425114130000e0
1.377127764340000e0 1.390968128460000e0 1.404947590560000e0 1.419067548590000e0
1.433329414560000e0 1.447734614660000e0 1.462284589430000e0 1.476980793880000e0
1.491824697640000e0 1.506817785110000e0 1.521961555620000e0 1.537257523550000e0
1.552707218510000e0 1.568312185490000e0 1.584073984990000e0 1.599994193220000e0
1.616074402190000e0 1.632316219960000e0 1.648721270700000e0 1.665291194950000e0
1.682027649700000e0 1.698932308620000e0 1.716006862180000e0 1.733253017870000e0
1.750672500300000e0 1.768267051430000e0 1.786038430750000e0 1.803988415400000e0
1.822118800390000e0 1.840431398780000e0 1.858928041850000e0 1.877610579260000e0
1.896480879300000e0 1.915540829010000e0 1.934792334400000e0 1.954237320640000e0
1.973877732230000e0 1.993715533240000e0 2.013752707470000e0 2.033991258650000e0
2.054433210640000e0 2.075080607670000e0 2.095935514490000e0 2.117000016610000e0
2.138276220500000e0 2.159766253780000e0 2.181472265500000e0 2.203396426260000e0
2.225540928490000e0 2.247907986680000e0 2.270499837530000e0 2.293318740260000e0
2.316366976780000e0 2.339646851930000e0 2.363160693710000e0 2.386910853520000e0
2.410899706420000e0 2.435129651290000e0 2.459603111160000e0 2.484322533380000e0
2.509290389940000e0 2.534509177620000e0 2.559981418330000e0 2.585709659320000e0
2.611696473420000e0 2.637944459350000e0 2.664456241930000e0 2.691234472350000e0
2.718281828460000e0 2.745601015020000e0 2.773194763960000e0 2.801065834700000e0
2.829217014350000e0 2.857651118060000e0 2.886370989270000e0 2.915379499980000e0
2.944679551070000e0 2.974274072560000e0 3.004166023950000e0 3.034358394440000e0
3.064854203290000e0 3.095656500120000e0 3.126768365190000e0 3.158192909690000e0
3.189933276120000e0 3.221992638530000e0 3.254374202890000e0 3.287081207380000e0
3.320116922740000e0 3.353484652550000e0 3.387187733620000e0 3.421229536290000e0
3.455613464760000e0 3.490342957460000e0 3.525421487370000e0 3.560852562360000e0
3.596639725570000e0 3.632786555750000e0 3.669296667620000e0 3.706173712210000e0
3.743421377260000e0 3.781043387570000e0 3.819043505370000e0 3.857425530700000e0
3.896193301800000e0 3.935350695470000e0 3.974901627490000e0 4.014850052990000e0
4.055199966840000e0 4.095955404070000e0 4.137120440250000e0 4.178699191920000e0
4.220695817000000e0 4.263114515170000e0 4.305959528350000e0 4.349235141060000e0
4.392945680920000e0 4.437095519000000e0 4.481689070340000e0 4.526730794310000e0
4.572225195140000e0 4.618176822300000e0 4.664590270990000e0 4.711470182590000e0
4.758821245140000e0 4.806648193780000e0 4.854955811240000e0 4.903748928330000e0
4.953032424400000e0 5.002811227830000e0 5.053090316560000e0 5.103874718540000e0
5.155169512230000e0 5.206979827180000e0 5.259310844450000e0 5.312167797180000e0
5.365555971120000e0 5.419480705130000e0 5.473947391730000e0 5.528961477620000e0
5.584528464280000e0 5.640653908430000e0 5.697343422670000e0 5.754602676010000e0
5.812437394400000e0 5.870853361380000e0 5.929856418590000e0 5.989452466380000e0
6.049647464410000e0 6.110447432230000e0 6.171858449880000e0 6.233886658520000e0
6.296538261030000e0 6.359819522600000e0 6.423736771430000e0 6.488296399290000e0
6.553504862190000e0 6.619368681040000e0 6.685894442280000e0 6.753088798530000e0
6.820958469290000e0 6.889510241580000e0 6.958750970640000e0 7.028687580590000e0
7.099327065160000e0 7.170676488350000e0 7.242742985160000e0 7.315533762310000e0
7.389056098930000e0 7.463317347320000e0 7.538324933660000e0 7.614086358780000e0
7.690609198880000e0 7.767901106310000e0 7.845969810320000e0 7.924823117850000e0
8.004468914300000e0 8.084915164310001e0 8.166169912570000e0 8.248241284630000e0
8.331137487690000e0 8.414866811440000e0 8.499437628890000e0 8.584858397180000e0
8.671137658459999e0 8.758284040740000e0 8.846306258720000e0 8.935213114700000e0
9.025013499430001e0 9.115716393040000e0 9.207330865879999e0 9.299866079479999e0
9.393331287440001e0 9.487735836360001e0 9.583089166760001e0 9.679400814070000e0
9.776680409530000e0 9.874937681170000e0 9.974182454810000e0 1.007442465500000e1
1.017567430610000e1 1.027794153300000e1 1.038123656270000e1 1.048556972470000e1
1.059095145240000e1 1.069739228410000e1 1.080490286390000e1 1.091349394300000e1
1.102317638060000e1 1.113396114510000e1 1.124585931490000e1 1.135888208000000e1
1.147304074280000e1 1.158834671920000e1 1.170481154000000e1 1.182244685160000e1
1.194126441780000e1 1.206127612040000e1 1.218249396070000e1 1.230493006050000e1
1.242859666360000e1 1.255350613670000e1 1.267967097080000e1 1.280710378270000e1
1.293581731550000e1 1.306582444090000e1 1.319713815970000e1 1.332977160320000e1
1.346373803500000e1 1.359905085180000e1 1.373572358510000e1 1.387376990210000e1
1.401320360770000e1 1.415403864540000e1 1.429628909870000e1 1.443996919280000e1
1.458509329590000e1 1.473167592040000e1 1.487973172490000e1 1.502927551490000e1
1.518032224500000e1 1.533288701990000e1 1.548698509630000e1 1.564263188420000e1
1.579984294830000e1 1.595863400980000e1 1.611902094800000e1 1.628101980180000e1
1.644464677110000e1 1.660991821880000e1 1.677685067210000e1 1.694546082450000e1
1.711576553710000e1 1.728778184060000e1 1.746152693660000e1 1.763701819980000e1
1.781427317960000e1 1.799330960160000e1 1.817414536940000e1 1.835679856700000e1
1.854128745970000e1 1.872763049670000e1 1.891584631230000e1 1.910595372820000e1
1.929797175550000e1 1.949191959600000e1 1.968781664480000e1 1.988568249160000e1
2.008553692320000e1 2.028739992520000e1 2.049129168420000e1 2.069723258940000e1
2.090524323510000e1 2.111534442250000e1 2.132755716200000e1 2.154190267500000e1
2.175840239620000e1 2.197707797580000e1 2.219795128140000e1 2.242104440070000e1
2.264637964320000e1 2.287397954240000e1 2.310386685870000e1 2.333606458090000e1
2.357059592910000e1 2.380748435640000e1 2.404675355210000e1 2.428842744310000e1
2.453253019710000e1 2.477908622460000e1 2.502812018130000e1 2.527965697100000e1
2.553372174740000e1 2.579033991720000e1 2.604953714250000e1 2.631133934330000e1
2.657577269990000e1 2.684286365590000e1 2.711263892070000e1 2.738512547190000e1
2.766035055850000e1 2.793834170320000e1 2.821912670540000e1 2.850273364380000e1
2.878919087920000e1 2.907852705780000e1 2.937077111330000e1 2.966595227040000e1
2.996410004740000e1 3.026524425940000e1 3.056941502110000e1 3.087664274970000e1
3.118695816830000e1 3.150039230870000e1 3.181697651470000e1 3.213674244480000e1
3.245972207590000e1 3.278594770620000e1 3.311545195870000e1 3.344826778390000e1
3.378442846380000e1 3.412396761480000e1 3.446691919090000e1 3.481331748760001e1
3.516319714510000e1 3.551659315160000e1 3.587354084710000e1 3.623407592650000e1
3.659823444370000e1 3.696605281480000e1 3.733756782210000e1 3.771281661720000e1
3.809183672540000e1 3.847466604900000e1 3.886134287130000e1 3.925190586030000e1
3.964639407260000e1 4.004484695730000e1 4.044730436010000e1 4.085380652700001e1
4.126439410860001e1 4.167910816400000e1 4.209799016500000e1 4.252108200010000e1
4.294842597880001e1 4.338006483590000e1 4.381604173560000e1 4.425640027600000e1
4.470118449330000e1 4.515043886630000e1 4.560420832080000e1 4.606253823420000e1
4.652547443980001e1 4.699306323160000e1 4.746535136890000e1 4.794238608080000e1
4.842421507130000e1 4.891088652370001e1 4.940244910550000e1 4.989895197340001e1
5.040044477810000e1 5.090697766920001e1 5.141860130050000e1 5.193536683480001e1
5.245732594910001e1 5.298453083970000e1 5.351703422750000e1 5.405488936330000e1
5.459815003310000e1 5.514687056350001e1 5.570110582680001e1 5.626091124710000e1
5.682634280550000e1 5.739745704540001e1 5.797431107900000e1 5.855696259190001e1
5.914546984990000e1 5.973989170410000e1 6.034028759740000e1 6.094671756960000e1
6.155924226440000e1 6.217792293480001e1 6.280282144920001e1 6.343400029810001e1
6.407152259990001e1 6.471545210740000e1 6.536585321400000e1 6.602279096040000e1
6.668633104090000e1 6.735653981010000e1 6.803348428940000e1 6.871723217380000e1
6.940785183880000e1 7.010541234670001e1 7.080998345430000e1 7.152163561920000e1
7.224044000730000e1 7.296646849960000e1 7.369979369959999e1 7.444048894030001e1
7.518862829200001e1 7.594428656920001e1 7.670753933829999e1 7.747846292529999e1
7.825713442310001e1 7.904363169960000e1 7.983803340510001e1 8.064041898050000e1
8.145086866500000e1 8.226946350420000e1 8.309628535829999e1 8.393141691030001e1
8.477494167380000e1 8.562694400220002e1 8.648750909630001e1 8.735672301340001e1
8.823467267570001e1 8.912144587870001e1 9.001713130050000e1 9.092181851050000e1
9.183559797820001e1 9.275856108210000e1 9.369080011950000e1 9.463240831490001e1
9.558347983010000e1 9.654410977280001e1 9.751439420710000e1 9.849443016190001e1
9.948431564190001e1
</PP_R>
<PP_RAB>
2.478752176670000e-5 2.503664050200000e-5 2.528826292230000e-5 2.554241418990000e-5
2.579911972030000e-5 2.605840518410000e-5 2.632029651010001e-5 2.658481988780000e-5
2.685200176950000e-5 2.712186887390000e-5 2.739444818770000e-5 2.766976696910000e-5
2.794785275040001e-5 2.822873334020000e-5 2.851243682680000e-5 2.879899158090000e-5
2.908842625810000e-5 2.938076980220000e-5 2.967605144780000e-5 2.997430072330000e-5
3.027554745380000e-5 3.057982176420000e-5 3.088715408240000e-5 3.119757514160000e-5
3.151111598440000e-5 3.182780796509999e-5 3.214768275310000e-5 3.247077233610001e-5
3.279710902340000e-5 3.312672544900000e-5 3.345965457470000e-5 3.379592969380000e-5
3.413558443400000e-5 3.447865276099999e-5 3.482516898210000e-5 3.517516774910000e-5
3.552868406220000e-5 3.588575327330000e-5 3.624641108970000e-5 3.661069357730000e-5
3.697863716479999e-5 3.735027864690000e-5 3.772565518790000e-5 3.810480432590000e-5
3.848776397609999e-5 3.887457243480000e-5 3.926526838310000e-5 3.965989089090000e-5
4.005847942090000e-5 4.046107383220000e-5 4.086771438460000e-5 4.127844174260000e-5
4.169329697900000e-5 4.211232158000000e-5 4.253555744820000e-5 4.296304690750000e-5
4.339483270740000e-5 4.383095802670000e-5 4.427146647829999e-5 4.471640211350000e-5
4.516580942609999e-5 4.561973335740000e-5 4.607821929990000e-5 4.654131310280000e-5
4.700906107580000e-5 4.748150999410000e-5 4.795870710300000e-5 4.844070012250000e-5
4.892753725240000e-5 4.941926717679999e-5 4.991593906910001e-5 5.041760259689999e-5
5.092430792699999e-5 5.143610573029999e-5 5.195304718710000e-5 5.247518399180001e-5
5.300256835870000e-5 5.353525302660000e-5 5.407329126439999e-5 5.461673687639999e-5
5.516564420760001e-5 5.572006814920001e-5 5.628006414400000e-5 5.684568819219999e-5
5.741699685650001e-5 5.799404726839999e-5 5.857689713339998e-5 5.916560473680001e-5
5.976022895010001e-5 6.036082923600000e-5 6.096746565519999e-5 6.158019887169999e-5
6.219909015940001e-5 6.282420140799999e-5 6.345559512910000e-5 6.409333446260002e-5
6.473748318289998e-5 6.538810570550000e-5 6.604526709310000e-5 6.670903306260000e-5
6.737946999090000e-5 6.805664492230000e-5 6.874062557499999e-5 6.943148034749999e-5
7.012927832590000e-5 7.083408929050000e-5 7.154598372310001e-5 7.226503281380001e-5
7.299130846790001e-5 7.372488331370000e-5 7.446583070920000e-5 7.521422474990000e-5
7.597014027580000e-5 7.673365287900000e-5 7.750483891140001e-5 7.828377549229999e-5
7.907054051590000e-5 7.986521265960000e-5 8.066787139100001e-5 8.147859697680001e-5
8.229747049020000e-5 8.312457381920000e-5 8.395998967490000e-5 8.480380159950000e-5
8.565609397500001e-5 8.651695203120001e-5 8.738646185469999e-5 8.826471039729999e-5
8.915178548440000e-5 9.004777582440003e-5 9.095277101699997e-5 9.186686156239999e-5
9.279013887060000e-5 9.372269527010001e-5 9.466462401709999e-5 9.561601930540000e-5
9.657697627540001e-5 9.754759102340000e-5 9.852796061190000e-5 9.951818307850001e-5
1.005183574460000e-4 1.015285837340000e-4 1.025489629640000e-4 1.035795971760000e-4
1.046205894340000e-4 1.056720438390000e-4 1.067340655350000e-4 1.078067607270000e-4
1.088902366860000e-4 1.099846017580000e-4 1.110899653820000e-4 1.122064380960000e-4
1.133341315470000e-4 1.144731585050000e-4 1.156236328750000e-4 1.167856697040000e-4
1.179593851980000e-4 1.191448967280000e-4 1.203423228470000e-4 1.215517832990000e-4
1.227733990310000e-4 1.240072922040000e-4 1.252535862110000e-4 1.265124056800000e-4
1.277838764950000e-4 1.290681258050000e-4 1.303652820340000e-4 1.316754749010000e-4
1.329988354240000e-4 1.343354959420000e-4 1.356855901220000e-4 1.370492529740000e-4
1.384266208650000e-4 1.398178315330000e-4 1.412230241020000e-4 1.426423390900000e-4
1.440759184310000e-4 1.455239054840000e-4 1.469864450490000e-4 1.484636833810000e-4
1.499557682050000e-4 1.514628487300000e-4 1.529850756670000e-4 1.545226012390000e-4
1.560755792000000e-4 1.576441648490000e-4 1.592285150450000e-4 1.608287882260000e-4
1.624451444190000e-4 1.640777452630000e-4 1.657267540180000e-4 1.673923355860000e-4
1.690746565270000e-4 1.707738850750000e-4 1.724901911530000e-4 1.742237463950000e-4
1.759747241560000e-4 1.777432995370000e-4 1.795296493950000e-4 1.813339523680000e-4
1.831563888870000e-4 1.849971411980000e-4 1.868563933770000e-4 1.887343313520000e-4
1.906311429160000e-4 1.925470177540000e-4 1.944821474540000e-4 1.964367255310000e-4
1.984109474440000e-4 2.004050106170000e-4 2.024191144580000e-4 2.044534603790000e-4
2.065082518170000e-4 2.085836942520000e-4 2.106799952300000e-4 2.127973643840000e-4
2.149360134510000e-4 2.170961562980000e-4 2.192780089430000e-4 2.214817895700000e-4
2.237077185620000e-4 2.259560185110000e-4 2.282269142510000e-4 2.305206328720000e-4
2.328374037490000e-4 2.351774585600000e-4 2.375410313130000e-4 2.399283583670000e-4
2.423396784570000e-4 2.447752327170000e-4 2.472352647030000e-4 2.497200204229999e-4
2.522297483520000e-4 2.547646994670000e-4 2.573251272640000e-4 2.599112877880001e-4
2.625234396570000e-4 2.651618440890000e-4 2.678267649260000e-4 2.705184686640000e-4
2.732372244730001e-4 2.759833042319999e-4 2.787569825520000e-4 2.815585368030000e-4
2.843882471420000e-4 2.872463965420000e-4 2.901332708220000e-4 2.930491586700001e-4
2.959943516790000e-4 2.989691443690000e-4 3.019738342230000e-4 3.050087217120000e-4
3.080741103280000e-4 3.111703066110000e-4 3.142976201840000e-4 3.174563637810000e-4
3.206468532789999e-4 3.238694077290000e-4 3.271243493900000e-4 3.304120037590000e-4
3.337326996029999e-4 3.370867689960000e-4 3.404745473460000e-4 3.438963734350000e-4
3.473525894470000e-4 3.508435410080001e-4 3.543695772160000e-4 3.579310506770001e-4
3.615283175400000e-4 3.651617375370000e-4 3.688316740120000e-4 3.725384939620000e-4
3.762825680720000e-4 3.800642707520000e-4 3.838839801760000e-4 3.877420783170000e-4
3.916389509900000e-4 3.955749878840001e-4 3.995505826070000e-4 4.035661327200000e-4
4.076220397839999e-4 4.117187093909999e-4 4.158565512120001e-4 4.200359790339999e-4
4.242574108050000e-4 4.285212686700000e-4 4.328279790200000e-4 4.371779725280001e-4
4.415716841970000e-4 4.460095534030000e-4 4.504920239360000e-4 4.550195440460000e-4
4.595925664900000e-4 4.642115485740000e-4 4.688769522000000e-4 4.735892439110001e-4
4.783488949420000e-4 4.831563812610000e-4 4.880121836200000e-4 4.929167876050000e-4
4.978706836789999e-4 5.028743672360000e-4 5.079283386489999e-4 5.130331033190001e-4
5.181891717270000e-4 5.233970594840000e-4 5.286572873840000e-4 5.339703814520000e-4
5.393368730040001e-4 5.447572986920001e-4 5.502322005639999e-4 5.557621261150000e-4
5.613476283410001e-4 5.669892657980000e-4 5.726876026550000e-4 5.784432087480001e-4
5.842566596450000e-4 5.901285366940000e-4 5.960594270890001e-4 6.020499239240000e-4
6.081006262520000e-4 6.142121391500000e-4 6.203850737740001e-4 6.266200474219998e-4