
     Program PWSCF v.6.5 starts on  9Oct2021 at 13:18:39 

     This program is part of the open-source Quantum ESPRESSO suite
     for quantum simulation of materials; please cite
         "P. Giannozzi et al., J. Phys.:Condens. Matter 21 395502 (2009);
         "P. Giannozzi et al., J. Phys.:Condens. Matter 29 465901 (2017);
          URL http://www.quantum-espresso.org", 
     in publications or presentations arising from this work. More details at
     http://www.quantum-espresso.org/quote

     Parallel version (MPI), running on    64 processors

     MPI processes distributed on     4 nodes
     R & G space division:  proc/nbgrp/npool/nimage =      64
     Waiting for input...
     Reading input from standard input
Warning: card   O 15.999400D0 O.PBE-RRKJUS.UPF ignored

     Current dimensions of program PWSCF are:
     Max number of different atomic species (ntypx) = 10
     Max number of k-points (npk) =  40000
     Max angular momentum in pseudopotentials (lmaxx) =  3
               file C.pbe-rrkjus.UPF: wavefunction(s)  2S 2P renormalized
               file H.pbe-rrkjus.UPF: wavefunction(s)  1S renormalized

     gamma-point specific algorithms are used

     Subspace diagonalization in iterative solution of the eigenvalue problem:
     a serial algorithm will be used


     Parallelization info
     --------------------
     sticks:   dense  smooth     PW     G-vecs:    dense   smooth      PW
     Min         317     126     30                28358     7170     886
     Max         320     128     32                28370     7184     904
     Sum       20369    8121   2029              1815357   459173   57327



     bravais-lattice index     =            6
     lattice parameter (alat)  =      32.0000  a.u.
     unit-cell volume          =   27197.4400 (a.u.)^3
     number of atoms/cell      =           12
     number of atomic types    =            2
     number of electrons       =        30.00
     number of Kohn-Sham states=           15
     kinetic-energy cutoff     =      25.0000  Ry
     charge density cutoff     =     250.0000  Ry
     convergence threshold     =      1.0E-10
     mixing beta               =       0.7000
     number of iterations used =            8  plain     mixing
     Exchange-correlation= SLA PW PBE PBE
                           (   1   4   3   4   0   0   0)

     celldm(1)=  32.000000  celldm(2)=   0.000000  celldm(3)=   0.830000
     celldm(4)=   0.000000  celldm(5)=   0.000000  celldm(6)=   0.000000

     crystal axes: (cart. coord. in units of alat)
               a(1) = (   1.000000   0.000000   0.000000 )  
               a(2) = (   0.000000   1.000000   0.000000 )  
               a(3) = (   0.000000   0.000000   0.830000 )  

     reciprocal axes: (cart. coord. in units 2 pi/alat)
               b(1) = (  1.000000  0.000000  0.000000 )  
               b(2) = (  0.000000  1.000000  0.000000 )  
               b(3) = (  0.000000  0.000000  1.204819 )  


     PseudoPot. # 1 for C  read from file:
     /home/fcb0039/app/qe-6.5/pseudo/C.pbe-rrkjus.UPF
     MD5 check sum: c9ac5a99bc85b198593446162950cd17
     Pseudo is Ultrasoft, Zval =  4.0
     Generated by new atomic code, or converted to UPF format
     Using radial grid of  627 points,  4 beta functions with: 
                l(1) =   0
                l(2) =   0
                l(3) =   1
                l(4) =   1
     Q(r) pseudized with 0 coefficients 


     PseudoPot. # 2 for H  read from file:
     /home/fcb0039/app/qe-6.5/pseudo/H.pbe-rrkjus.UPF
     MD5 check sum: 2d52a7f45632fd764c17cc6affed14c8
     Pseudo is Ultrasoft, Zval =  1.0
     Generated by new atomic code, or converted to UPF format
     Using radial grid of 1061 points,  2 beta functions with: 
                l(1) =   0
                l(2) =   0
     Q(r) pseudized with 0 coefficients 


     atomic species   valence    mass     pseudopotential
        C              4.00    12.01070     C ( 1.00)
        H              1.00     1.00794     H ( 1.00)

     No symmetry found



   Cartesian axes

     site n.     atom                  positions (alat units)
         1           C   tau(   1) = (   0.3326627   0.3732718   0.2952697  )
         2           C   tau(   2) = (   0.4043454   0.4973890   0.2952697  )
         3           C   tau(   3) = (   0.4760191   0.4560089   0.2952697  )
         4           C   tau(   4) = (   0.4760166   0.3732585   0.2952697  )
         5           C   tau(   5) = (   0.4043364   0.3318871   0.2952697  )
         6           C   tau(   6) = (   0.3326674   0.4560225   0.2952697  )
         7           H   tau(   7) = (   0.4043574   0.5617361   0.2952697  )
         8           H   tau(   8) = (   0.5317432   0.4881776   0.2952697  )
         9           H   tau(   9) = (   0.5317393   0.3410894   0.2952697  )
        10           H   tau(  10) = (   0.4043332   0.2675452   0.2952697  )
        11           H   tau(  11) = (   0.2769368   0.3411096   0.2952697  )
        12           H   tau(  12) = (   0.2769507   0.4882003   0.2952697  )

     number of k points=     1
                       cart. coord. in units 2pi/alat
        k(    1) = (   0.0000000   0.0000000   0.0000000), wk =   2.0000000

     Dense  grid:   907679 G-vectors     FFT dimensions: ( 162, 162, 135)

     Smooth grid:   229587 G-vectors     FFT dimensions: ( 108, 108,  90)

     Estimated max dynamical RAM per process >      26.46 MB

     Estimated total dynamical RAM >       1.65 GB

     Initial potential from superposition of free atoms

     starting charge   29.42246, renormalised to   30.00000

     negative rho (up, down):  2.503E-03 0.000E+00
     Starting wfcs are   30 randomized atomic wfcs

     total cpu time spent up to now is      438.9 secs

     Self-consistent Calculation

     iteration #  1     ecut=    25.00 Ry     beta= 0.70
     Davidson diagonalization with overlap
     ethr =  1.00E-02,  avg # of iterations =  2.0

     negative rho (up, down):  1.207E-03 0.000E+00

     total cpu time spent up to now is      439.3 secs

     total energy              =     -75.04569205 Ry
     Harris-Foulkes estimate   =     -76.54707171 Ry
     estimated scf accuracy    <       2.26241092 Ry

     iteration #  2     ecut=    25.00 Ry     beta= 0.70
     Davidson diagonalization with overlap
     ethr =  7.54E-03,  avg # of iterations =  2.0

     negative rho (up, down):  1.006E-03 0.000E+00

     total cpu time spent up to now is      439.6 secs

     total energy              =     -75.33344090 Ry
     Harris-Foulkes estimate   =     -75.43709906 Ry
     estimated scf accuracy    <       0.18825463 Ry

     iteration #  3     ecut=    25.00 Ry     beta= 0.70
     Davidson diagonalization with overlap
     ethr =  6.28E-04,  avg # of iterations =  2.0

     negative rho (up, down):  1.048E-03 0.000E+00

     total cpu time spent up to now is      439.9 secs

     total energy              =     -75.36595233 Ry
     Harris-Foulkes estimate   =     -75.38448302 Ry
     estimated scf accuracy    <       0.02956733 Ry

     iteration #  4     ecut=    25.00 Ry     beta= 0.70
     Davidson diagonalization with overlap
     ethr =  9.86E-05,  avg # of iterations =  2.0

     negative rho (up, down):  8.614E-04 0.000E+00

     total cpu time spent up to now is      440.3 secs

     total energy              =     -75.37404016 Ry
     Harris-Foulkes estimate   =     -75.37459836 Ry
     estimated scf accuracy    <       0.00176231 Ry

     iteration #  5     ecut=    25.00 Ry     beta= 0.70
     Davidson diagonalization with overlap
     ethr =  5.87E-06,  avg # of iterations =  2.0

     negative rho (up, down):  1.095E-03 0.000E+00

     total cpu time spent up to now is      440.6 secs

     total energy              =     -75.37438565 Ry
     Harris-Foulkes estimate   =     -75.37435213 Ry
     estimated scf accuracy    <       0.00001641 Ry

     iteration #  6     ecut=    25.00 Ry     beta= 0.70
     Davidson diagonalization with overlap
     ethr =  5.47E-08,  avg # of iterations =  3.0

     negative rho (up, down):  1.108E-03 0.000E+00

     total cpu time spent up to now is      440.9 secs

     total energy              =     -75.37439061 Ry
     Harris-Foulkes estimate   =     -75.37439107 Ry
     estimated scf accuracy    <       0.00000103 Ry

     iteration #  7     ecut=    25.00 Ry     beta= 0.70
     Davidson diagonalization with overlap
     ethr =  3.43E-09,  avg # of iterations =  2.0

     negative rho (up, down):  1.107E-03 0.000E+00

     total cpu time spent up to now is      442.8 secs

     total energy              =     -75.37439064 Ry
     Harris-Foulkes estimate   =     -75.37439071 Ry
     estimated scf accuracy    <       0.00000012 Ry

     iteration #  8     ecut=    25.00 Ry     beta= 0.70
     Davidson diagonalization with overlap
     ethr =  3.96E-10,  avg # of iterations =  2.0

     negative rho (up, down):  1.103E-03 0.000E+00

     total cpu time spent up to now is      443.2 secs

     total energy              =     -75.37439065 Ry
     Harris-Foulkes estimate   =     -75.37439066 Ry
     estimated scf accuracy    <          2.5E-09 Ry

     iteration #  9     ecut=    25.00 Ry     beta= 0.70
     Davidson diagonalization with overlap
     ethr =  8.35E-12,  avg # of iterations =  2.0

     negative rho (up, down):  1.103E-03 0.000E+00

     total cpu time spent up to now is      443.5 secs

     total energy              =     -75.37439065 Ry
     Harris-Foulkes estimate   =     -75.37439066 Ry
     estimated scf accuracy    <          6.2E-10 Ry

     iteration # 10     ecut=    25.00 Ry     beta= 0.70
     Davidson diagonalization with overlap
     ethr =  2.07E-12,  avg # of iterations =  2.0

     negative rho (up, down):  1.103E-03 0.000E+00

     total cpu time spent up to now is      443.9 secs

     End of self-consistent calculation

          k = 0.0000 0.0000 0.0000 ( 28664 PWs)   bands (ev):

   -20.9596 -18.2125 -18.2108 -14.6245 -14.6233 -12.6807 -11.0331 -10.7009
   -10.0424 -10.0403  -8.8544  -8.0731  -8.0726  -6.1546  -6.1533

     highest occupied level (ev):    -6.1533

!    total energy              =     -75.37439065 Ry
     Harris-Foulkes estimate   =     -75.37439065 Ry
     estimated scf accuracy    <          9.8E-11 Ry

     The total energy is the sum of the following terms:

     one-electron contribution =    -351.77443853 Ry
     hartree contribution      =     179.06572250 Ry
     xc contribution           =     -25.10083577 Ry
     ewald contribution        =     122.43516114 Ry

     convergence has been achieved in  10 iterations

     Writing output data file ./tmp/C6H6.save/

     init_run     :    160.62s CPU    438.53s WALL (       1 calls)
     electrons    :      4.97s CPU      5.24s WALL (       1 calls)

     Called by init_run:
     wfcinit      :      0.07s CPU      0.07s WALL (       1 calls)
     potinit      :      1.57s CPU      1.59s WALL (       1 calls)
     hinit0       :    158.56s CPU    436.44s WALL (       1 calls)

     Called by electrons:
     c_bands      :      1.45s CPU      1.48s WALL (      10 calls)
     sum_band     :      1.33s CPU      1.34s WALL (      10 calls)
     v_of_rho     :      1.65s CPU      1.68s WALL (      11 calls)
     newd         :      0.35s CPU      0.37s WALL (      11 calls)
     mix_rho      :      0.30s CPU      0.30s WALL (      10 calls)

     Called by c_bands:
     init_us_2    :      0.01s CPU      0.01s WALL (      21 calls)
     regterg      :      1.41s CPU      1.43s WALL (      10 calls)

     Called by sum_band:
     sum_band:bec :      0.00s CPU      0.00s WALL (      10 calls)
     addusdens    :      0.21s CPU      0.22s WALL (      10 calls)

     Called by *egterg:
     h_psi        :      1.32s CPU      1.34s WALL (      32 calls)
     s_psi        :      0.00s CPU      0.00s WALL (      32 calls)
     g_psi        :      0.00s CPU      0.00s WALL (      21 calls)
     rdiaghg      :      0.02s CPU      0.01s WALL (      31 calls)

     Called by h_psi:
     h_psi:calbec :      0.09s CPU      0.09s WALL (      32 calls)
     vloc_psi     :      1.22s CPU      1.24s WALL (      32 calls)
     add_vuspsi   :      0.00s CPU      0.00s WALL (      32 calls)

     General routines
     calbec       :      0.20s CPU      0.20s WALL (      42 calls)
     fft          :    159.95s CPU    437.85s WALL (     118 calls)
     ffts         :      0.07s CPU      0.07s WALL (      21 calls)
     fftw         :      1.64s CPU      1.67s WALL (     558 calls)
     interpolate  :      0.12s CPU      0.13s WALL (      11 calls)

     Parallel routines
     fft_scatt_xy :      0.12s CPU      0.12s WALL (     697 calls)
     fft_scatt_yz :    161.20s CPU    439.12s WALL (     697 calls)

     PWSCF        :   2m46.24s CPU   7m24.74s WALL


   This run was terminated on:  13:26: 3   9Oct2021            

=------------------------------------------------------------------------------=
   JOB DONE.
=------------------------------------------------------------------------------=
